VARIABLES="w (rad/s)"
"abs(F   1   1)" "angle(F   1   1)"
"abs(F   1   2)" "angle(F   1   2)"
"abs(F   1   3)" "angle(F   1   3)"
"abs(F   1   4)" "angle(F   1   4)"
"abs(F   1   5)" "angle(F   1   5)"
"abs(F   1   6)" "angle(F   1   6)"
Zone t="Diffraction force - beta =   0.000 deg",I=    50,F=POINT
  0.1000000E+00  0.3381584E-01 -0.1570796E+01  0.1111899E-07 -0.3129093E+01  0.4062209E+00 -0.3141007E+01  0.7802734E-08  0.3134803E+01  0.5295149E-02 -0.1570796E+01  0.1526632E-15 -0.3131650E+01
  0.3020408E+00  0.3074392E+00 -0.1570796E+01  0.3146316E-07  0.5993046E-01  0.3728565E+01 -0.3136301E+01  0.6056835E-07  0.3131194E+01  0.4823206E-01 -0.1570796E+01  0.5789534E-15  0.1825222E+01
  0.5040816E+00  0.8551666E+00 -0.1570796E+01  0.7963485E-07 -0.2071288E+01  0.1048922E+02 -0.3127122E+01  0.2341173E-06 -0.2061411E-01  0.1334225E+00 -0.1570796E+01  0.1159107E-14  0.2850136E+01
  0.7061225E+00  0.1671077E+01 -0.1570794E+01  0.2668351E-06  0.3054485E+00  0.2077260E+02 -0.3113811E+01  0.3002145E-06 -0.3083685E+01  0.2604784E+00 -0.1570794E+01  0.1373742E-13  0.2930923E+01
  0.9081632E+00  0.2738749E+01 -0.1570785E+01  0.7725014E-06  0.2951137E+01  0.3471519E+02 -0.3096882E+01  0.1068926E-05 -0.5377368E-03  0.4251693E+00 -0.1570783E+01  0.6458646E-14 -0.7743109E-01
  0.1110204E+01  0.4073682E+01 -0.1570759E+01  0.3465890E-06 -0.3346696E+00  0.5232456E+02 -0.3076769E+01  0.6317204E-06  0.3081065E+01  0.6269892E+00 -0.1570751E+01  0.1125388E-13  0.1719320E+01
  0.1312245E+01  0.5636560E+01 -0.1570695E+01  0.2483182E-05 -0.2610388E+01  0.7360036E+02 -0.3053987E+01  0.1317820E-05 -0.3018257E+01  0.8600666E+00 -0.1570672E+01  0.2005205E-13  0.3445137E+00
  0.1514286E+01  0.7375690E+01 -0.1570560E+01  0.3259194E-05 -0.2368742E+00  0.9844740E+02 -0.3029011E+01  0.2456784E-05  0.7947761E-01  0.1119990E+01 -0.1570504E+01  0.4411013E-13  0.2168944E+00
  0.1716326E+01  0.9388937E+01 -0.1570307E+01  0.2342560E-05  0.2975946E+01  0.1267467E+03 -0.3002357E+01  0.4560944E-07  0.2170126E+01  0.1407587E+01 -0.1570184E+01  0.8341463E-14  0.1101196E+01
  0.1918367E+01  0.1147166E+02 -0.1569857E+01  0.2521855E-05 -0.8752187E+00  0.1582815E+03 -0.2974485E+01  0.2242642E-05  0.3024397E+01  0.1704337E+01 -0.1569610E+01  0.3753605E-13  0.1594461E+01
  0.2120408E+01  0.1382219E+02 -0.1569130E+01  0.1309218E-04  0.1252506E+00  0.1927209E+03 -0.2945741E+01  0.4446348E-05 -0.2218240E+00  0.2022108E+01 -0.1568667E+01  0.8872703E-13 -0.2375661E+01
  0.2322449E+01  0.1612637E+02 -0.1567979E+01  0.8853888E-05  0.2493603E+00  0.2297863E+03 -0.2916583E+01  0.5954494E-05  0.1611503E+00  0.2333564E+01 -0.1567165E+01  0.6125373E-13 -0.1675325E+00
  0.2524490E+01  0.1865007E+02 -0.1566296E+01  0.5647341E-05  0.2331292E+00  0.2692024E+03 -0.2887455E+01  0.8364835E-06  0.1410311E+00  0.2643277E+01 -0.1564894E+01  0.1678751E-13  0.2224879E+01
  0.2726531E+01  0.2121834E+02 -0.1563900E+01  0.4563075E-05 -0.1003754E+01  0.3103876E+03 -0.2858425E+01  0.1993581E-05 -0.3132366E+01  0.2950922E+01 -0.1561608E+01  0.1956010E-13  0.1525373E+01
  0.2928571E+01  0.2356854E+02 -0.1560524E+01  0.1784639E-04 -0.7237268E-01  0.3531252E+03 -0.2830003E+01  0.3296926E-05 -0.3136402E+01  0.3212814E+01 -0.1556872E+01  0.1261284E-12  0.3131030E+01
  0.3130612E+01  0.2602058E+02 -0.1556108E+01  0.2226959E-04 -0.1209833E+00  0.3969199E+03 -0.2802278E+01  0.3335933E-05 -0.1656610E+01  0.3447465E+01 -0.1550385E+01  0.1332837E-12 -0.2660063E+01
  0.3332653E+01  0.2841574E+02 -0.1550442E+01  0.5894572E-05  0.2038772E+01  0.4414243E+03 -0.2775485E+01  0.3177117E-05  0.2989456E+01  0.3643978E+01 -0.1541690E+01  0.8039976E-13  0.1548700E+01
  0.3534693E+01  0.3039849E+02 -0.1543109E+01  0.6089418E-05 -0.3057759E+01  0.4861550E+03 -0.2749670E+01  0.1339310E-04  0.2823767E+01  0.3764643E+01 -0.1529961E+01  0.1902029E-12  0.3736578E-01
  0.3736735E+01  0.3200282E+02 -0.1533995E+01  0.3432035E-05 -0.2514048E+01  0.5308597E+03 -0.2725092E+01  0.2870649E-05 -0.1069780E+01  0.3795202E+01 -0.1514319E+01  0.1498891E-12  0.5485494E+00
  0.3938775E+01  0.3339663E+02 -0.1523378E+01  0.3462942E-04 -0.7514560E+00  0.5752726E+03 -0.2701939E+01  0.6642631E-05 -0.1053215E+01  0.3724111E+01 -0.1493683E+01  0.6576120E-13 -0.1858372E+01
  0.4140816E+01  0.3430862E+02 -0.1511053E+01  0.1635832E-04  0.1179649E+01  0.6187927E+03 -0.2679830E+01  0.1122401E-04 -0.7685729E+00  0.3555668E+01 -0.1466651E+01  0.2929764E-12 -0.6629044E+00
  0.4342857E+01  0.3443992E+02 -0.1496673E+01  0.1298432E-04 -0.2418647E+00  0.6612925E+03 -0.2659089E+01  0.2056320E-04 -0.2983436E+01  0.3235954E+01 -0.1428860E+01  0.2053518E-12  0.2221218E+01
  0.4544898E+01  0.3357631E+02 -0.1479948E+01  0.1885966E-04  0.2026935E+01  0.7025419E+03 -0.2639914E+01  0.9180668E-05 -0.8600684E+00  0.2723574E+01 -0.1369922E+01  0.2944469E-12 -0.2415952E+01
  0.4746939E+01  0.3183937E+02 -0.1462268E+01  0.2423255E-04  0.2865135E+01  0.7421329E+03 -0.2622002E+01  0.9306129E-05  0.2342324E+01  0.2047528E+01 -0.1267046E+01  0.2879671E-12 -0.1607816E+01
  0.4948979E+01  0.2913878E+02 -0.1445040E+01  0.4085005E-04 -0.2729503E+01  0.7799453E+03 -0.2605576E+01  0.1020115E-04 -0.2196156E+01  0.1211502E+01 -0.1007598E+01  0.1143096E-12  0.7963867E+00
  0.5151020E+01  0.2521782E+02 -0.1429285E+01  0.1669063E-04  0.1427601E+01  0.8157163E+03 -0.2590669E+01  0.2653371E-05 -0.4254946E+00  0.6430503E+00  0.2293447E+00  0.4074920E-12  0.5888381E-01
  0.5353061E+01  0.1989371E+02 -0.1419245E+01  0.2838819E-04  0.2152184E+01  0.8491473E+03 -0.2577080E+01  0.1747666E-04  0.3627874E+00  0.1652124E+01  0.1247329E+01  0.5120662E-12 -0.2580052E+01
  0.5555102E+01  0.1315904E+02 -0.1433388E+01  0.3010435E-04 -0.2068873E+01  0.8799952E+03 -0.2564668E+01  0.1199090E-04  0.2165175E+01  0.3239475E+01  0.1473759E+01  0.5241005E-12  0.6604487E+00
  0.5757143E+01  0.5054124E+01 -0.1612008E+01  0.7495728E-04  0.1404673E+01  0.9081407E+03 -0.2553641E+01  0.3871454E-05  0.3120301E+01  0.5143987E+01  0.1577649E+01  0.2827143E-12 -0.1177455E+01
  0.5959183E+01  0.5345592E+01  0.2208829E+01  0.7092470E-06 -0.4756864E+00  0.9333555E+03 -0.2543948E+01  0.2497887E-04 -0.2048892E+01  0.7340425E+01  0.1645563E+01  0.4108927E-12  0.2557787E+01
  0.6161224E+01  0.1662048E+02  0.2025309E+01  0.2562092E-04  0.1829185E+01  0.9554477E+03 -0.2535383E+01  0.1005460E-04  0.1989660E+01  0.9805934E+01  0.1698624E+01  0.2970821E-12  0.2160457E+01
  0.6363265E+01  0.2958972E+02  0.2013608E+01  0.2718254E-04  0.2365255E+01  0.9742359E+03 -0.2527867E+01  0.7412182E-05  0.2793337E+01  0.1250289E+02  0.1744378E+01  0.2515286E-12  0.1378941E+01
  0.6565306E+01  0.4405074E+02  0.2026885E+01  0.7190868E-04 -0.2041538E+01  0.9896293E+03 -0.2521604E+01  0.7778366E-05 -0.2706837E+01  0.1544028E+02  0.1785334E+01  0.1372121E-11  0.1521581E+01
  0.6767346E+01  0.5986762E+02  0.2048267E+01  0.1663355E-04 -0.1447247E+01  0.1001451E+04 -0.2516564E+01  0.2128341E-04 -0.1105001E+01  0.1859276E+02  0.1822772E+01  0.1709092E-12 -0.9106647E+00
  0.6969387E+01  0.7689732E+02  0.2072619E+01  0.5491082E-04  0.2483200E+01  0.1009565E+04 -0.2512765E+01  0.1651416E-04 -0.3117975E+01  0.2193368E+02  0.1857217E+01  0.3715838E-12  0.2441652E+01
  0.7171429E+01  0.9501244E+02  0.2098033E+01  0.1545802E-04  0.3041594E+01  0.1013896E+04 -0.2509958E+01  0.1285325E-04  0.1848316E+00  0.2540185E+02  0.1889701E+01  0.2718812E-12 -0.1801513E+01
  0.7373469E+01  0.1140198E+03  0.2123515E+01  0.3552762E-04 -0.1712803E+01  0.1014326E+04 -0.2508286E+01  0.5656381E-05 -0.2369649E+01  0.2896850E+02  0.1920207E+01  0.3501631E-12 -0.1535278E+01
  0.7575510E+01  0.1336883E+03  0.2148506E+01  0.7212118E-04  0.1893997E+01  0.1010794E+04 -0.2507890E+01  0.4221926E-05 -0.2211280E+01  0.3261557E+02  0.1948503E+01  0.5558592E-12 -0.2551485E+01
  0.7777551E+01  0.1537793E+03  0.2172766E+01  0.3603780E-04  0.7809919E+00  0.1003239E+04 -0.2508754E+01  0.7041194E-05 -0.4589672E+00  0.3630013E+02  0.1974678E+01  0.1044263E-11  0.1417096E+01
  0.7979591E+01  0.1740649E+03  0.2195883E+01  0.4672552E-04 -0.2652201E+01  0.9915474E+03 -0.2510971E+01  0.6108294E-05 -0.3034278E+01  0.3998541E+02  0.1998655E+01  0.3533448E-12  0.9105316E+00
  0.8181633E+01  0.1943303E+03  0.2217813E+01  0.5486508E-04  0.1391793E+01  0.9758255E+03 -0.2514478E+01  0.2742962E-05  0.6833048E+00  0.4362019E+02  0.2020781E+01  0.3776694E-12 -0.1683921E+01
  0.8383674E+01  0.2143867E+03  0.2238452E+01  0.3483568E-04 -0.2953241E+01  0.9561527E+03 -0.2519260E+01  0.7715109E-05  0.7714204E+00  0.4714784E+02  0.2041453E+01  0.8639104E-12  0.1187235E+01
  0.8585714E+01  0.2339221E+03  0.2257734E+01  0.7585919E-04 -0.1563996E+00  0.9324666E+03 -0.2525594E+01  0.2345796E-04  0.2751994E+00  0.5054978E+02  0.2060217E+01  0.2804676E-12 -0.2785787E+01
  0.8787755E+01  0.2526764E+03  0.2275737E+01  0.1716547E-04 -0.9782116E+00  0.9048803E+03 -0.2533629E+01  0.8315669E-05  0.1951532E+01  0.5379338E+02  0.2077064E+01  0.1205883E-11  0.1299376E+01
  0.8989796E+01  0.2703869E+03  0.2292426E+01  0.1499322E-04 -0.5774546E+00  0.8734628E+03 -0.2543489E+01  0.1236456E-04  0.6535065E-01  0.5683432E+02  0.2092027E+01  0.1298108E-12  0.1718977E+00
  0.9191836E+01  0.2867845E+03  0.2307795E+01  0.5001050E-04 -0.1957346E+01  0.8383468E+03 -0.2555343E+01  0.4641975E-05 -0.1799497E+01  0.5963470E+02  0.2105087E+01  0.9782324E-12 -0.1714748E+01
  0.9393878E+01  0.3016423E+03  0.2321928E+01  0.2749446E-04 -0.3012551E+01  0.7998495E+03 -0.2569425E+01  0.4672285E-05  0.8277655E+00  0.6215496E+02  0.2116439E+01  0.5734641E-12 -0.1985247E+01
  0.9595919E+01  0.3148252E+03  0.2334839E+01  0.3822376E-04 -0.2477679E+01  0.7584279E+03 -0.2586072E+01  0.4714728E-05 -0.3973439E+00  0.6434351E+02  0.2126597E+01  0.6466037E-13  0.2219792E+01
  0.9797959E+01  0.3260265E+03  0.2346541E+01  0.3919047E-04  0.2374293E+01  0.7141382E+03 -0.2605758E+01  0.1887900E-04  0.2885487E+01  0.6617883E+02  0.2135170E+01  0.8839638E-12 -0.1051401E+01
  0.1000000E+02  0.3349699E+03  0.2357007E+01  0.4105937E-04 -0.1132988E+01  0.6673248E+03 -0.2629035E+01  0.9700924E-05  0.2379074E+01  0.6763937E+02  0.2141941E+01  0.6665789E-12 -0.1121451E+01
