VARIABLES="w (rad/s)"
"abs(F   1   1)" "angle(F   1   1)"
"abs(F   1   2)" "angle(F   1   2)"
"abs(F   1   3)" "angle(F   1   3)"
"abs(F   1   4)" "angle(F   1   4)"
"abs(F   1   5)" "angle(F   1   5)"
"abs(F   1   6)" "angle(F   1   6)"
Zone t="Diffraction force - beta =   0.000 deg",I=    50,F=POINT
  0.1000000E+00  0.1639971E+00 -0.1570818E+01  0.9997742E-04  0.3141583E+01  0.2136969E+04 -0.1113409E-06  0.1587684E-04  0.3680455E-05  0.3110552E-01 -0.1570681E+01  0.2272212E-12 -0.1293096E-02
  0.3020408E+00  0.1494726E+01 -0.1570795E+01  0.6615344E-04 -0.2425193E-04  0.2132591E+04 -0.9251676E-05  0.8181698E-05  0.3141570E+01  0.2835940E+00 -0.1570828E+01  0.2059167E-12  0.6967031E-02
  0.5040816E+00  0.4160206E+01 -0.1570794E+01  0.3148718E-03 -0.3141407E+01  0.2123706E+04 -0.7147004E-04  0.5733657E-04 -0.3141552E+01  0.7883986E+00 -0.1570791E+01  0.1361458E-12  0.3119777E+01
  0.7061225E+00  0.8150810E+01 -0.1570794E+01  0.1568857E-03  0.3141094E+01  0.2110217E+04 -0.2734422E-03  0.1106759E-05 -0.1769846E-01  0.1544018E+01 -0.1570788E+01  0.1549780E-11  0.5113142E-02
  0.9081632E+00  0.1344447E+02 -0.1570794E+01  0.8875259E-05  0.6570749E-02  0.2091991E+04 -0.7416945E-03  0.7644272E-04 -0.1636175E-03  0.2544544E+01 -0.1570793E+01  0.3848196E-12  0.3092672E+01
  0.1110204E+01  0.2004893E+02 -0.1570790E+01  0.9812650E-04 -0.3141072E+01  0.2069037E+04 -0.1638197E-02  0.4164032E-04  0.7583414E-03  0.3787206E+01 -0.1570789E+01  0.2770220E-12 -0.1067072E+00
  0.1312245E+01  0.2791492E+02 -0.1570776E+01  0.8277634E-04 -0.1972986E-01  0.2041365E+04 -0.3154543E-02  0.4660585E-04 -0.3137584E+01  0.5263250E+01 -0.1570776E+01  0.1975305E-12 -0.2960181E+01
  0.1514286E+01  0.3697838E+02 -0.1570749E+01  0.2519603E-03 -0.3137618E+01  0.2009123E+04 -0.5504903E-02  0.1753205E-04  0.1159727E-01  0.6964818E+01 -0.1570749E+01  0.1527336E-11  0.3129417E+01
  0.1716326E+01  0.4732207E+02 -0.1570699E+01  0.1279013E-03  0.3140306E+01  0.1972505E+04 -0.8918062E-02  0.3206136E-04  0.3141220E+01  0.8888585E+01 -0.1570700E+01  0.5943329E-12  0.5214125E-01
  0.1918367E+01  0.5872344E+02 -0.1570613E+01  0.6435175E-04 -0.3224460E-01  0.1931817E+04 -0.1362859E-01  0.1661185E-05  0.2983713E+01  0.1101121E+02 -0.1570612E+01  0.2003862E-12 -0.2864358E+01
  0.2120408E+01  0.7135962E+02 -0.1570473E+01  0.1135260E-03  0.1155197E-01  0.1887513E+04 -0.1987077E-01  0.3905745E-04 -0.3116825E+01  0.1333906E+02 -0.1570473E+01  0.2402250E-11 -0.3118945E+01
  0.2322449E+01  0.8489177E+02 -0.1570262E+01  0.7695505E-05  0.3483278E+00  0.1840003E+04 -0.2786710E-01  0.5248469E-04  0.3122985E+01  0.1583857E+02 -0.1570261E+01  0.2815903E-12  0.2853761E+01
  0.2524490E+01  0.9955706E+02 -0.1569953E+01  0.7363838E-05  0.2988390E+01  0.1789708E+04 -0.3782546E-01  0.3868663E-04  0.3147617E-02  0.1850726E+02 -0.1569953E+01  0.3523475E-12 -0.3205549E+00
  0.2726531E+01  0.1151478E+03 -0.1569525E+01  0.1329972E-03 -0.3112986E+01  0.1737358E+04 -0.4993669E-01  0.6529830E-04 -0.6525182E-03  0.2133690E+02 -0.1569525E+01  0.3193554E-12  0.2184257E+01
  0.2928571E+01  0.1313634E+03 -0.1568953E+01  0.2948550E-04  0.3139496E+01  0.1683292E+04 -0.6435790E-01  0.3712258E-04  0.1809445E-02  0.2427514E+02 -0.1568953E+01  0.2236977E-11  0.3119555E+01
  0.3130612E+01  0.1484815E+03 -0.1568222E+01  0.6735187E-04 -0.4125113E-01  0.1628142E+04 -0.8123159E-01  0.1825678E-04 -0.1924959E+00  0.2733079E+02 -0.1568222E+01  0.1372034E-12  0.6914229E+00
  0.3332653E+01  0.1662946E+03 -0.1567318E+01  0.1054075E-03  0.3090907E+01  0.1572338E+04 -0.1006717E+00  0.6869167E-04  0.5511360E-02  0.3048227E+02 -0.1567318E+01  0.3970469E-12 -0.2805341E+01
  0.3534693E+01  0.1843925E+03 -0.1566232E+01  0.1897535E-03 -0.7543773E-02  0.1516449E+04 -0.1227617E+00  0.3428219E-04  0.1261966E+00  0.3368011E+02 -0.1566233E+01  0.5674820E-12  0.2781723E+01
  0.3736735E+01  0.2027484E+03 -0.1564988E+01  0.1807027E-03 -0.1246888E-01  0.1460747E+04 -0.1475598E+00  0.1887693E-04 -0.1243275E+00  0.3689709E+02 -0.1564990E+01  0.4766466E-12  0.1798535E+00
  0.3938775E+01  0.2214621E+03 -0.1563648E+01  0.2141443E-03 -0.1050726E+00  0.1405470E+04 -0.1751064E+00  0.2343257E-04 -0.2498948E+00  0.4010749E+02 -0.1563643E+01  0.3949529E-12  0.6898434E+00
  0.4140816E+01  0.2401875E+03 -0.1562267E+01  0.9916224E-04  0.1591833E+00  0.1351291E+04 -0.2054613E+00  0.5908779E-04 -0.3011146E+01  0.4330007E+02 -0.1562259E+01  0.5679184E-12  0.2138844E+01
  0.4342857E+01  0.2585434E+03 -0.1560931E+01  0.1154004E-03 -0.1890470E-02  0.1298217E+04 -0.2386118E+00  0.4453420E-04 -0.7928901E-01  0.4640347E+02 -0.1560931E+01  0.3388700E-12  0.5152448E+00
  0.4544898E+01  0.2762264E+03 -0.1559768E+01  0.1399652E-03  0.1172852E+00  0.1246322E+04 -0.2745133E+00  0.1174344E-04 -0.2500137E+01  0.4935562E+02 -0.1559785E+01  0.6473059E-12 -0.2953885E+01
  0.4746939E+01  0.2932679E+03 -0.1559036E+01  0.4420307E-04  0.3034250E+01  0.1195988E+04 -0.3131984E+00  0.5910037E-04  0.3029601E+01  0.5216011E+02 -0.1559055E+01  0.4866083E-12  0.1424253E+01
  0.4948979E+01  0.3094839E+03 -0.1558987E+01  0.2012625E-03 -0.3072112E+01  0.1147118E+04 -0.3546309E+00  0.1169116E-04 -0.2369291E+01  0.5476398E+02 -0.1558985E+01  0.9141767E-12 -0.1491044E+01
  0.5151020E+01  0.3245210E+03 -0.1559836E+01  0.6875067E-04  0.2938784E+01  0.1099763E+04 -0.3987553E+00  0.3962073E-05 -0.2823633E+01  0.5712051E+02 -0.1559833E+01  0.1466818E-11 -0.1846767E+01
  0.5353061E+01  0.3381019E+03 -0.1561913E+01  0.3467061E-04  0.2185086E+01  0.1054115E+04 -0.4455730E+00  0.6061215E-05  0.1585241E+01  0.5920044E+02 -0.1561925E+01  0.2707196E-12 -0.2218891E+01
  0.5555102E+01  0.3501292E+03 -0.1565648E+01  0.1169342E-03 -0.2906537E+01  0.1010305E+04 -0.4950738E+00  0.3516231E-04  0.2841327E+01  0.6099471E+02 -0.1565650E+01  0.1015326E-11  0.4064999E+00
  0.5757143E+01  0.3604529E+03 -0.1571374E+01  0.1121337E-03  0.6639473E+00  0.9681180E+03 -0.5471967E+00  0.3628077E-04 -0.3016178E-02  0.6245778E+02 -0.1571360E+01  0.1104674E-11 -0.8742050E+00
  0.5959183E+01  0.3689439E+03 -0.1579426E+01  0.2406473E-04 -0.2575566E+00  0.9275671E+03 -0.6018987E+00  0.3148985E-04 -0.2350244E+01  0.6357394E+02 -0.1579421E+01  0.7668333E-12 -0.2578327E+01
  0.6161224E+01  0.3755439E+03 -0.1590227E+01  0.9862257E-04  0.2907321E+01  0.8887902E+03 -0.6592034E+00  0.1641276E-04  0.5845441E+00  0.6435062E+02 -0.1590223E+01  0.2438337E-12 -0.3033190E+00
  0.6363265E+01  0.3802748E+03 -0.1604143E+01  0.4770128E-04  0.3689317E+00  0.8518164E+03 -0.7190704E+00  0.3057906E-05  0.2213140E+01  0.6481685E+02 -0.1604117E+01  0.5271981E-12  0.4199349E+00
  0.6565306E+01  0.3831904E+03 -0.1621450E+01  0.6418861E-04 -0.1500805E+01  0.8163849E+03 -0.7814717E+00  0.7738429E-05 -0.4098263E+00  0.6495782E+02 -0.1621422E+01  0.2177327E-11  0.1441533E+01
  0.6767346E+01  0.3844038E+03 -0.1642426E+01  0.4599214E-04 -0.2835819E+01  0.7824669E+03 -0.8463623E+00  0.3127707E-04 -0.2488485E+01  0.6479549E+02 -0.1642398E+01  0.1064878E-11 -0.1640915E+01
  0.6969387E+01  0.3840378E+03 -0.1667263E+01  0.5102677E-04  0.2421202E+01  0.7499853E+03 -0.9137174E+00  0.3655152E-04 -0.3134847E+01  0.6435190E+02 -0.1667240E+01  0.1097491E-11 -0.2039330E+01
  0.7171429E+01  0.3822119E+03 -0.1696200E+01  0.9734443E-04  0.3086380E+01  0.7191388E+03 -0.9835719E+00  0.3082387E-04  0.8689620E-01  0.6368918E+02 -0.1696171E+01  0.5513063E-12  0.1477219E+01
  0.7373469E+01  0.3790985E+03 -0.1729362E+01  0.1129966E-03 -0.2827306E+01  0.6897372E+03 -0.1055850E+01  0.1099260E-04 -0.2767754E+01  0.6283226E+02 -0.1729295E+01  0.1463167E-11 -0.1335535E+01
  0.7575510E+01  0.3748896E+03 -0.1766794E+01  0.6846077E-04  0.1539850E+01  0.6616025E+03 -0.1130576E+01  0.1534438E-04 -0.2890929E+01  0.6179196E+02 -0.1766704E+01  0.1069656E-11 -0.2414795E+01
  0.7777551E+01  0.3697784E+03 -0.1808522E+01  0.3031255E-04  0.1939979E+01  0.6347284E+03 -0.1207729E+01  0.9576826E-05 -0.2810637E+01  0.6060289E+02 -0.1808421E+01  0.9604377E-12  0.2020434E+01
  0.7979591E+01  0.3639008E+03 -0.1854490E+01  0.9652563E-04 -0.2914797E+01  0.6089868E+03 -0.1287210E+01  0.3170867E-05 -0.2591545E+00  0.5928781E+02 -0.1854419E+01  0.1326858E-12  0.6152166E+00
  0.8181633E+01  0.3573959E+03 -0.1904739E+01  0.6408270E-04  0.1093922E+01  0.5844705E+03 -0.1369123E+01  0.1713656E-04  0.3067313E+01  0.5788837E+02 -0.1904713E+01  0.1684246E-12  0.1533875E+01
  0.8383674E+01  0.3503669E+03 -0.1959350E+01  0.1090875E-03 -0.3107730E+01  0.5612316E+03 -0.1453454E+01  0.4655777E-04  0.1183221E+00  0.5645174E+02 -0.1959224E+01  0.1435392E-11  0.1764127E+01
  0.8585714E+01  0.3429627E+03 -0.2018110E+01  0.1149235E-03 -0.1162306E+00  0.5390085E+03 -0.1540121E+01  0.4912645E-04  0.1150327E+00  0.5496902E+02 -0.2017859E+01  0.2080870E-12  0.3047551E+01
  0.8787755E+01  0.3353069E+03 -0.2080940E+01  0.6905948E-04 -0.1748668E+00  0.5177477E+03 -0.1629197E+01  0.1491413E-04  0.5273911E+00  0.5345031E+02 -0.2080626E+01  0.1041229E-11  0.1547443E+01
  0.8989796E+01  0.3274804E+03 -0.2147707E+01  0.1143785E-04 -0.2538165E+01  0.4973951E+03 -0.1720575E+01  0.1363431E-04  0.7322250E-01  0.5191254E+02 -0.2147373E+01  0.7089886E-12 -0.7078111E+00
  0.9191836E+01  0.3195490E+03 -0.2218251E+01  0.6296072E-04 -0.8883904E+00  0.4778919E+03 -0.1814178E+01  0.2319719E-04 -0.1851960E+00  0.5036368E+02 -0.2218015E+01  0.6539536E-12  0.2718955E+01
  0.9393878E+01  0.3115795E+03 -0.2292547E+01  0.2030182E-04  0.2982753E+01  0.4592743E+03 -0.1910142E+01  0.1870297E-04  0.1744454E+00  0.4882281E+02 -0.2292524E+01  0.3389085E-12  0.2970412E+01
  0.9595919E+01  0.3036150E+03 -0.2370846E+01  0.3166612E-04 -0.2356111E+01  0.4416646E+03 -0.2008733E+01  0.1654545E-04 -0.9329314E-01  0.4733245E+02 -0.2370642E+01  0.1245637E-11 -0.1845179E+01
  0.9797959E+01  0.2957111E+03 -0.2452832E+01  0.2820169E-04  0.1400246E+01  0.4248148E+03 -0.2109686E+01  0.1567898E-04  0.2812366E+01  0.4587166E+02 -0.2452272E+01  0.7669254E-12 -0.6935521E+00
  0.1000000E+02  0.2878796E+03 -0.2538245E+01  0.7143230E-04 -0.6106229E+00  0.4086827E+03 -0.2213011E+01  0.1275830E-04  0.2632479E+01  0.4442886E+02 -0.2537491E+01  0.7571966E-12 -0.3519696E-01
