VARIABLES="Period (s)" "|Fx| (N/m)" "|Fy| (N/m)" "|Fz| (N/m)" "|Cx| (N)" "|Cy| (N)" "|Cz| (N)" "ang(Fx) (°)" "ang(Fy) (°)" "ang(Fz) (°)" "ang(Cx) (°)" "ang(Cy) (°)" "ang(Cz) (°)"
Zone t="Corps  1"
Zone t="Diffraction force - beta =   0.000 deg",I=    50,F=POINT
 0.1000  0.163997E+00  0.999774E-04  0.213697E+04  0.158768E-04  0.311055E-01  0.227221E-12    0.00 -270.00  -90.00  -90.00   -0.01  -89.93
 0.3020  0.149473E+01  0.661534E-04  0.213259E+04  0.818170E-05  0.283594E+00  0.205917E-12    0.00  -90.00  -90.00 -270.00    0.00  -90.40
 0.5041  0.416021E+01  0.314872E-03  0.212371E+04  0.573366E-04  0.788399E+00  0.136146E-12    0.00   89.99  -90.00   90.00    0.00 -268.75
 0.7061  0.815081E+01  0.156886E-03  0.211022E+04  0.110676E-05  0.154402E+01  0.154978E-11    0.00 -269.97  -89.98  -88.99    0.00  -90.29
 0.9082  0.134445E+02  0.887526E-05  0.209199E+04  0.764427E-04  0.254454E+01  0.384820E-12    0.00  -90.38  -89.96  -89.99    0.00 -267.20
 1.1102  0.200489E+02  0.981265E-04  0.206904E+04  0.416403E-04  0.378721E+01  0.277022E-12    0.00   89.97  -89.91  -90.04    0.00  -83.89
 1.3122  0.279149E+02  0.827763E-04  0.204137E+04  0.466059E-04  0.526325E+01  0.197530E-12    0.00  -88.87  -89.82   89.77    0.00   79.61
 1.5143  0.369784E+02  0.251960E-03  0.200912E+04  0.175320E-04  0.696482E+01  0.152734E-11    0.00   89.77  -89.68  -90.66    0.00 -269.30
 1.7163  0.473221E+02  0.127901E-03  0.197251E+04  0.320614E-04  0.888859E+01  0.594333E-12   -0.01 -269.93  -89.49 -269.98   -0.01  -92.99
 1.9184  0.587234E+02  0.643517E-04  0.193182E+04  0.166119E-05  0.110112E+02  0.200386E-12   -0.01  -88.15  -89.22 -260.95   -0.01   74.12
 2.1204  0.713596E+02  0.113526E-03  0.188751E+04  0.390574E-04  0.133391E+02  0.240225E-11   -0.02  -90.66  -88.86   88.58   -0.02   88.70
 2.3224  0.848918E+02  0.769550E-05  0.184000E+04  0.524847E-04  0.158386E+02  0.281590E-12   -0.03 -109.96  -88.40 -268.93   -0.03 -253.51
 2.5245  0.995571E+02  0.736384E-05  0.178971E+04  0.386866E-04  0.185073E+02  0.352347E-12   -0.05 -261.22  -87.83  -90.18   -0.05  -71.63
 2.7265  0.115148E+03  0.132997E-03  0.173736E+04  0.652983E-04  0.213369E+02  0.319355E-12   -0.07   88.36  -87.14  -89.96   -0.07 -215.15
 2.9286  0.131363E+03  0.294855E-04  0.168329E+04  0.371226E-04  0.242751E+02  0.223698E-11   -0.11 -269.88  -86.31  -90.10   -0.11 -268.74
 3.1306  0.148481E+03  0.673519E-04  0.162814E+04  0.182568E-04  0.273308E+02  0.137203E-12   -0.15  -87.64  -85.35  -78.97   -0.15 -129.62
 3.3327  0.166295E+03  0.105407E-03  0.157234E+04  0.686917E-04  0.304823E+02  0.397047E-12   -0.20 -267.10  -84.23  -90.32   -0.20   70.73
 3.5347  0.184392E+03  0.189753E-03  0.151645E+04  0.342822E-04  0.336801E+02  0.567482E-12   -0.26  -89.57  -82.97  -97.23   -0.26 -249.38
 3.7367  0.202748E+03  0.180703E-03  0.146075E+04  0.188769E-04  0.368971E+02  0.476647E-12   -0.33  -89.29  -81.55  -82.88   -0.33 -100.30
 3.9388  0.221462E+03  0.214144E-03  0.140547E+04  0.234326E-04  0.401075E+02  0.394953E-12   -0.41  -83.98  -79.97  -75.68   -0.41 -129.53
 4.1408  0.240187E+03  0.991622E-04  0.135129E+04  0.590878E-04  0.433001E+02  0.567918E-12   -0.49  -99.12  -78.23   82.53   -0.49 -212.55
 4.3429  0.258543E+03  0.115400E-03  0.129822E+04  0.445342E-04  0.464035E+02  0.338870E-12   -0.57  -89.89  -76.33  -85.46   -0.57 -119.52
 4.5449  0.276226E+03  0.139965E-03  0.124632E+04  0.117434E-04  0.493556E+02  0.647306E-12   -0.63  -96.72  -74.27   53.25   -0.63   79.25
 4.7469  0.293268E+03  0.442031E-04  0.119599E+04  0.591004E-04  0.521601E+02  0.486608E-12   -0.67 -263.85  -72.06 -263.58   -0.67 -171.60
 4.9490  0.309484E+03  0.201262E-03  0.114712E+04  0.116912E-04  0.547640E+02  0.914177E-12   -0.68   86.02  -69.68   45.75   -0.68   -4.57
 5.1510  0.324521E+03  0.687507E-04  0.109976E+04  0.396207E-05  0.571205E+02  0.146682E-11   -0.63 -258.38  -67.15   71.78   -0.63   15.81
 5.3531  0.338102E+03  0.346706E-04  0.105412E+04  0.606122E-05  0.592004E+02  0.270720E-12   -0.51 -215.20  -64.47 -180.83   -0.51   37.13
 5.5551  0.350129E+03  0.116934E-03  0.101030E+04  0.351623E-04  0.609947E+02  0.101533E-11   -0.29   76.53  -61.63 -252.80   -0.29 -113.29
 5.7571  0.360453E+03  0.112134E-03  0.968118E+03  0.362808E-04  0.624578E+02  0.110467E-11    0.03 -128.04  -58.65  -89.83    0.03  -39.91
 5.9592  0.368944E+03  0.240647E-04  0.927567E+03  0.314899E-04  0.635739E+02  0.766833E-12    0.49  -75.24  -55.51   44.66    0.49   57.73
 6.1612  0.375544E+03  0.986226E-04  0.888790E+03  0.164128E-04  0.643506E+02  0.243834E-12    1.11 -256.58  -52.23 -123.49    1.11  -72.62
 6.3633  0.380275E+03  0.477013E-04  0.851816E+03  0.305791E-05  0.648168E+02  0.527198E-12    1.91 -111.14  -48.80 -216.80    1.91 -114.06
 6.5653  0.383190E+03  0.641886E-04  0.816385E+03  0.773843E-05  0.649578E+02  0.217733E-11    2.90   -4.01  -45.22  -66.52    2.90 -172.59
 6.7673  0.384404E+03  0.459921E-04  0.782467E+03  0.312771E-04  0.647955E+02  0.106488E-11    4.10   72.48  -41.51   52.58    4.10    4.02
 6.9694  0.384038E+03  0.510268E-04  0.749985E+03  0.365515E-04  0.643519E+02  0.109749E-11    5.53 -228.72  -37.65   89.61    5.53   26.84
 7.1714  0.382212E+03  0.973444E-04  0.719139E+03  0.308239E-04  0.636892E+02  0.551306E-12    7.19 -266.84  -33.65  -94.98    7.18 -174.64
 7.3735  0.379098E+03  0.112997E-03  0.689737E+03  0.109926E-04  0.628323E+02  0.146317E-11    9.09   71.99  -29.50   68.58    9.08  -13.48
 7.5755  0.374890E+03  0.684608E-04  0.661603E+03  0.153444E-04  0.617920E+02  0.106966E-11   11.23 -178.23  -25.22   75.64   11.22   48.36
 7.7776  0.369778E+03  0.303125E-04  0.634728E+03  0.957683E-05  0.606029E+02  0.960438E-12   13.62 -201.15  -20.80   71.04   13.61 -205.76
 7.9796  0.363901E+03  0.965256E-04  0.608987E+03  0.317087E-05  0.592878E+02  0.132686E-12   16.25   77.01  -16.25  -75.15   16.25 -125.25
 8.1816  0.357396E+03  0.640827E-04  0.584471E+03  0.171366E-04  0.578884E+02  0.168425E-12   19.13 -152.68  -11.56 -265.74   19.13 -177.88
 8.3837  0.350367E+03  0.109087E-03  0.561232E+03  0.465578E-04  0.564517E+02  0.143539E-11   22.26   88.06   -6.72  -96.78   22.26 -191.08
 8.5857  0.342963E+03  0.114923E-03  0.539009E+03  0.491264E-04  0.549690E+02  0.208087E-12   25.63  -83.34   -1.76  -96.59   25.61 -264.61
 8.7878  0.335307E+03  0.690595E-04  0.517748E+03  0.149141E-04  0.534503E+02  0.104123E-11   29.23  -79.98    3.35 -120.22   29.21 -178.66
 8.9898  0.327480E+03  0.114379E-04  0.497395E+03  0.136343E-04  0.519125E+02  0.708989E-12   33.05   55.43    8.58  -94.20   33.04  -49.45
 9.1918  0.319549E+03  0.629607E-04  0.477892E+03  0.231972E-04  0.503637E+02  0.653954E-12   37.10  -39.10   13.94  -79.39   37.08 -245.78
 9.3939  0.311579E+03  0.203018E-04  0.459274E+03  0.187030E-04  0.488228E+02  0.338909E-12   41.35 -260.90   19.44  -99.99   41.35 -260.19
 9.5959  0.303615E+03  0.316661E-04  0.441665E+03  0.165454E-04  0.473325E+02  0.124564E-11   45.84   45.00   25.09  -84.65   45.83   15.72
 9.7980  0.295711E+03  0.282017E-04  0.424815E+03  0.156790E-04  0.458717E+02  0.766925E-12   50.54 -170.23   30.88 -251.14   50.50  -50.26
10.0000  0.287880E+03  0.714323E-04  0.408683E+03  0.127583E-04  0.444289E+02  0.757197E-12   55.43  -55.01   36.80 -240.83   55.39  -87.98
