VARIABLES="w (rad/s)"
"abs(F   1   1)" "angle(F   1   1)"
"abs(F   1   2)" "angle(F   1   2)"
"abs(F   1   3)" "angle(F   1   3)"
"abs(F   1   4)" "angle(F   1   4)"
"abs(F   1   5)" "angle(F   1   5)"
"abs(F   1   6)" "angle(F   1   6)"
Zone t="FKforce - beta =   0.000",I=    50,F=POINT
  0.1000000E+00  0.1301813E+00 -0.1570824E+01  0.9996630E-04  0.3141582E+01  0.2137375E+04 -0.2587158E-11  0.1588464E-04  0.3435375E-06  0.2581037E-01 -0.1570658E+01  0.2273739E-12 -0.1285552E-02
  0.3020408E+00  0.1187287E+01 -0.1570795E+01  0.6612204E-04 -0.5276337E-04  0.2136319E+04 -0.3705552E-11  0.8121133E-05 -0.3141538E+01  0.2353619E+00 -0.1570835E+01  0.2060593E-12  0.4242970E-02
  0.5040816E+00  0.3305040E+01 -0.1570794E+01  0.3148336E-03  0.3141556E+01  0.2134194E+04 -0.8727629E-11  0.5757064E-04  0.3141549E+01  0.6549761E+00 -0.1570790E+01  0.1350289E-12  0.3122064E+01
  0.7061225E+00  0.6479733E+01 -0.1570794E+01  0.1571402E-03 -0.3141580E+01  0.2130982E+04  0.1013931E-09  0.1406299E-05 -0.1572846E-02  0.1283540E+01 -0.1570787E+01  0.1563202E-11  0.3231523E-02
  0.9081632E+00  0.1070572E+02 -0.1570796E+01  0.9634002E-05 -0.9126415E-02  0.2126671E+04 -0.7707483E-10  0.7537380E-04 -0.1583119E-03  0.2119375E+01 -0.1570795E+01  0.3912757E-12  0.3092201E+01
  0.1110204E+01  0.1597525E+02 -0.1570798E+01  0.9845386E-04  0.3140955E+01  0.2121249E+04 -0.3512356E-10  0.4227087E-04 -0.1569798E-03  0.3160217E+01 -0.1570796E+01  0.2800750E-12 -0.1455970E+00
  0.1312245E+01  0.2227836E+02 -0.1570796E+01  0.8490206E-04 -0.4418616E-02  0.2114673E+04 -0.3981303E-09  0.4529767E-04 -0.3141047E+01  0.4403184E+01 -0.1570796E+01  0.2173408E-12 -0.2945199E+01
  0.1514286E+01  0.2960269E+02 -0.1570796E+01  0.2551266E-03 -0.3140665E+01  0.2106917E+04  0.9194242E-10  0.1508184E-04  0.5480424E-03  0.5844828E+01 -0.1570796E+01  0.1570326E-11  0.3135795E+01
  0.1716326E+01  0.3793314E+02 -0.1570796E+01  0.1255909E-03 -0.3139828E+01  0.2097947E+04  0.1264287E-08  0.3203564E-04 -0.3140790E+01  0.7480998E+01 -0.1570797E+01  0.5902199E-12  0.3988847E-01
  0.1918367E+01  0.4725179E+02 -0.1570796E+01  0.6270238E-04 -0.2211252E-02  0.2087714E+04 -0.1149145E-08  0.5867341E-06 -0.1785712E-02  0.9306870E+01 -0.1570796E+01  0.2129258E-12 -0.2692869E+01
  0.2120408E+01  0.5753745E+02 -0.1570796E+01  0.1005293E-03 -0.3223942E-02  0.2076177E+04  0.1191417E-08  0.4338287E-04  0.3141340E+01  0.1131696E+02 -0.1570796E+01  0.2337696E-11  0.3138553E+01
  0.2322449E+01  0.6876545E+02 -0.1570797E+01  0.1417273E-05  0.2824673E+01  0.2063283E+04  0.1444412E-10  0.5835295E-04  0.3141230E+01  0.1350502E+02 -0.1570796E+01  0.3424803E-12  0.2875227E+01
  0.2524490E+01  0.8090714E+02 -0.1570796E+01  0.1277344E-04 -0.3127429E+01  0.2048984E+04  0.2181739E-08  0.3785826E-04  0.1107011E-03  0.1586402E+02 -0.1570796E+01  0.3663604E-12 -0.3462855E+00
  0.2726531E+01  0.9392986E+02 -0.1570796E+01  0.1353938E-03  0.3141261E+01  0.2033219E+04  0.1905501E-08  0.6729179E-04 -0.3598417E-03  0.1838609E+02 -0.1570796E+01  0.3041256E-12  0.2223643E+01
  0.2928571E+01  0.1077959E+03 -0.1570796E+01  0.4730444E-04  0.3113002E+01  0.2015928E+04  0.3873257E-08  0.4041949E-04  0.2085250E-02  0.2106260E+02 -0.1570796E+01  0.2110857E-11  0.3118869E+01
  0.3130612E+01  0.1224632E+03 -0.1570796E+01  0.4518786E-04 -0.1988868E-02  0.1997062E+04  0.3014463E-08  0.1820628E-04 -0.9284571E-02  0.2388395E+02 -0.1570796E+01  0.2689993E-12  0.5880026E+00
  0.3332653E+01  0.1378837E+03 -0.1570796E+01  0.1026132E-03  0.3140817E+01  0.1976547E+04  0.3377466E-08  0.7183112E-04 -0.1432682E-02  0.2683965E+02 -0.1570797E+01  0.4318594E-12 -0.2630100E+01
  0.3534693E+01  0.1540037E+03 -0.1570796E+01  0.1958183E-03 -0.4706133E-02  0.1954330E+04  0.7350202E-08  0.4673208E-04  0.2770131E-02  0.2991826E+02 -0.1570796E+01  0.7465101E-12  0.2880454E+01
  0.3736735E+01  0.1707638E+03 -0.1570796E+01  0.1834670E-03 -0.1296980E-02  0.1930349E+04 -0.8645742E-09  0.1735330E-04  0.1019716E-01  0.3310732E+02 -0.1570796E+01  0.3411345E-12  0.2083032E-01
  0.3938775E+01  0.1880973E+03 -0.1570796E+01  0.1876634E-03  0.6300227E-02  0.1904541E+04 -0.2215762E-07  0.1941809E-04 -0.1151079E-02  0.3639342E+02 -0.1570796E+01  0.4509743E-12  0.7714715E+00
  0.4140816E+01  0.2059313E+03 -0.1570796E+01  0.9167388E-04  0.6496780E-02  0.1876855E+04  0.1016247E-08  0.6665486E-04  0.3139853E+01  0.3976209E+02 -0.1570796E+01  0.8497691E-12  0.2254025E+01
  0.4342857E+01  0.2241855E+03 -0.1570796E+01  0.1028345E-03  0.2812421E-01  0.1847231E+04 -0.4517384E-09  0.6470149E-04 -0.4462200E-02  0.4319780E+02 -0.1570796E+01  0.4192353E-12  0.8474373E-02
  0.4544898E+01  0.2427718E+03 -0.1570796E+01  0.1473121E-03 -0.3755340E-02  0.1815628E+04 -0.2757608E-08  0.1539864E-04 -0.3137117E+01  0.4668382E+02 -0.1570796E+01  0.4223099E-12  0.2963996E+01
  0.4746939E+01  0.2615956E+03 -0.1570796E+01  0.2072157E-04 -0.3050815E+01  0.1781995E+04 -0.8696552E-08  0.5224165E-04 -0.3140327E+01  0.5020272E+02 -0.1570796E+01  0.7734907E-12  0.1464958E+01
  0.4948979E+01  0.2805537E+03 -0.1570796E+01  0.1633640E-03  0.3126969E+01  0.1746296E+04  0.8533011E-08  0.2405453E-05  0.3094728E+01  0.5373577E+02 -0.1570796E+01  0.9930088E-12 -0.1577952E+01
  0.5151020E+01  0.2995358E+03 -0.1570796E+01  0.6977464E-04 -0.3103289E+01  0.1708505E+04 -0.1165226E-07  0.6181921E-05 -0.3118390E+01  0.5726327E+02 -0.1570796E+01  0.1646348E-11 -0.2082716E+01
  0.5353061E+01  0.3184229E+03 -0.1570796E+01  0.6366650E-05  0.2332298E+01  0.1668597E+04  0.1335981E-07  0.1642728E-04 -0.3132975E+01  0.6076455E+02 -0.1570796E+01  0.2759249E-12  0.2074962E+00
  0.5555102E+01  0.3370895E+03 -0.1570796E+01  0.9933984E-04 -0.3133671E+01  0.1626564E+04  0.0000000E+00  0.2687828E-04  0.3124267E+01  0.6421813E+02 -0.1570796E+01  0.5248195E-12  0.1529067E+00
  0.5757143E+01  0.3554030E+03 -0.1570796E+01  0.7607088E-04 -0.6347270E-01  0.1582404E+04  0.3088706E-08  0.4015164E-04 -0.4778216E-02  0.6760163E+02 -0.1570796E+01  0.8391176E-12 -0.7734227E+00
  0.5959183E+01  0.3732241E+03 -0.1570796E+01  0.2337279E-04 -0.2509898E+00  0.1536129E+04 -0.6984332E-08  0.1064358E-04 -0.3120853E+01  0.7089149E+02 -0.1570796E+01  0.7055246E-12 -0.2018679E+01
  0.6161224E+01  0.3904061E+03 -0.1570796E+01  0.8940152E-04 -0.3120600E+01  0.1487771E+04 -0.8333114E-08  0.1777755E-04 -0.7229547E-02  0.7406441E+02 -0.1570796E+01  0.5104546E-12 -0.6769149E+00
  0.6363265E+01  0.4067992E+03 -0.1570796E+01  0.6391254E-04 -0.2885622E-01  0.1437368E+04 -0.2322203E-08  0.5135952E-05 -0.1577671E-01  0.7709587E+02 -0.1570796E+01  0.4346089E-12 -0.7363711E-01
  0.6565306E+01  0.4222469E+03 -0.1570796E+01  0.3710300E-04  0.1506061E-02  0.1384978E+04  0.1291096E-08  0.1415369E-04  0.1362116E-01  0.7996091E+02 -0.1570796E+01  0.8170005E-12  0.1306833E+01
  0.6767346E+01  0.4365901E+03 -0.1570796E+01  0.4598571E-04  0.3083679E+01  0.1330673E+04 -0.9854425E-08  0.3439933E-04  0.3141295E+01  0.8263510E+02 -0.1570796E+01  0.9444557E-12 -0.1761921E+01
  0.6969387E+01  0.4496688E+03 -0.1570796E+01  0.5084496E-05  0.1263900E-01  0.1274549E+04  0.1421664E-07  0.2004164E-04  0.3134436E+01  0.8509298E+02 -0.1570796E+01  0.1236779E-11 -0.1742556E+01
  0.7171429E+01  0.4613203E+03 -0.1570796E+01  0.8190483E-04  0.3094830E+01  0.1216719E+04 -0.4585278E-07  0.1807595E-04  0.1731250E-01  0.8731034E+02 -0.1570796E+01  0.8214762E-12  0.1431957E+01
  0.7373469E+01  0.4713849E+03 -0.1570796E+01  0.1024337E-03  0.3139265E+01  0.1157310E+04  0.3028362E-07  0.6180641E-05 -0.3130442E+01  0.8926275E+02 -0.1570796E+01  0.1122119E-11 -0.1273578E+01
  0.7575510E+01  0.4797047E+03 -0.1570796E+01  0.2502420E-04  0.1637543E-02  0.1096473E+04 -0.1326392E-07  0.1234906E-04 -0.3107498E+01  0.9092655E+02 -0.1570796E+01  0.5244797E-12 -0.2269871E+01
  0.7777551E+01  0.4861271E+03 -0.1570796E+01  0.3664792E-04  0.3062375E+01  0.1034383E+04  0.3042513E-07  0.1536962E-04  0.3141108E+01  0.9227945E+02 -0.1570796E+01  0.6009786E-12 -0.2860045E+01
  0.7979591E+01  0.4905064E+03 -0.1570796E+01  0.5281362E-04  0.3136655E+01  0.9712291E+03 -0.7118958E-08  0.9139509E-05 -0.1732399E-01  0.9330011E+02 -0.1570796E+01  0.2296727E-12 -0.2062119E+01
  0.8181633E+01  0.4927058E+03 -0.1570796E+01  0.1986504E-04  0.1487909E+00  0.9072238E+03  0.3153602E-08  0.1922195E-04 -0.3117656E+01  0.9396893E+02 -0.1570796E+01  0.5457558E-12  0.1481168E+01
  0.8383674E+01  0.4926024E+03 -0.1570796E+01  0.7485883E-04  0.3103788E+01  0.8425991E+03  0.2546605E-08  0.4070129E-04  0.2883122E-02  0.9426790E+02 -0.1570796E+01  0.8532091E-12  0.2349202E+01
  0.8585714E+01  0.4900860E+03 -0.1570796E+01  0.3924391E-04 -0.3852599E-01  0.7776079E+03 -0.7174560E-07  0.2623683E-04 -0.2804612E-01  0.9418221E+02 -0.1570796E+01  0.1298126E-12  0.1127039E+01
  0.8787755E+01  0.4850647E+03 -0.1570796E+01  0.5846159E-04  0.3805122E-01  0.7125175E+03  0.5521137E-07  0.1597921E-04 -0.1340559E-01  0.9369848E+02 -0.1570796E+01  0.3224618E-12 -0.2757634E+01
  0.8989796E+01  0.4774659E+03 -0.1570796E+01  0.2204521E-04  0.3064671E+01  0.6476129E+03  0.3534238E-07  0.1273861E-05  0.1497033E+00  0.9280717E+02 -0.1570796E+01  0.6341882E-12 -0.8661956E+00
  0.9191836E+01  0.4672398E+03 -0.1570796E+01  0.5861572E-04 -0.4335772E-01  0.5831955E+03 -0.4701363E-07  0.2385422E-04  0.1046351E-01  0.9150173E+02 -0.1570796E+01  0.1317785E-11  0.1924203E+01
  0.9393878E+01  0.4543626E+03 -0.1570796E+01  0.9883106E-05  0.7517419E+00  0.5195781E+03 -0.6745383E-07  0.1525945E-04 -0.1275614E-01  0.8977927E+02 -0.1570796E+01  0.5916841E-12  0.1745816E+01
  0.9595919E+01  0.4388378E+03 -0.1570796E+01  0.7801858E-05  0.1492913E+00  0.4570827E+03 -0.5920265E-07  0.1212939E-04  0.2334395E-01  0.8764051E+02 -0.1570796E+01  0.1285670E-11 -0.1805052E+01
  0.9797959E+01  0.4206985E+03 -0.1570796E+01  0.3300058E-04  0.1778042E-01  0.3960387E+03 -0.6230786E-07  0.3438322E-05  0.8352363E-01  0.8509106E+02 -0.1570796E+01  0.3155772E-12  0.1071899E+01
  0.1000000E+02  0.4000106E+03 -0.1570796E+01  0.4128905E-04 -0.9145734E-01  0.3367801E+03 -0.7645703E-07  0.4153637E-05 -0.3025185E+01  0.8214046E+02 -0.1570796E+01  0.7399075E-12  0.8874317E+00
