 VARIABLES="Time (s)"
"AddedMass    1" "IRF    1"
"AddedMass    2" "IRF    2"
"AddedMass    3" "IRF    3"
"AddedMass    4" "IRF    4"
"AddedMass    5" "IRF    5"
"AddedMass    6" "IRF    6"
Zone t="DoF    1",I=   100,F=POINT
  0.0000000E+00  0.2826800E+01  0.4720926E+02  0.1768607E-08  0.7811660E-07 -0.5787831E-06 -0.1019424E-04 -0.4439875E-09 -0.9355553E-08  0.4304790E+00  0.7699858E+01 -0.1766351E-14  0.3655734E-13
  0.1000000E+00  0.2826800E+01  0.3265308E+02  0.1768607E-08  0.4826491E-07 -0.5787831E-06 -0.8452484E-05 -0.4439875E-09 -0.5455110E-08  0.4304790E+00  0.5354208E+01 -0.1766351E-14  0.2552780E-13
  0.2000000E+00  0.2826800E+01 -0.1173676E+01  0.1768607E-08 -0.1821007E-07 -0.5787831E-06 -0.4420367E-05 -0.4439875E-09  0.3060467E-08  0.4304790E+00 -0.1101534E+00 -0.1766351E-14 -0.2851418E-15
  0.3000000E+00  0.2826800E+01 -0.3182444E+02  0.1768607E-08 -0.7017667E-07 -0.5787831E-06 -0.8249565E-06 -0.4439875E-09  0.9255166E-08  0.4304790E+00 -0.5099705E+01 -0.1766351E-14 -0.2416666E-13
  0.4000000E+00  0.2826800E+01 -0.4016710E+02  0.1768607E-08 -0.6835990E-07 -0.5787831E-06  0.1936475E-07 -0.4439875E-09  0.8125286E-08  0.4304790E+00 -0.6532053E+01 -0.1766351E-14 -0.3153770E-13
  0.5000000E+00  0.2826800E+01 -0.2331463E+02  0.1768607E-08 -0.1544246E-07 -0.5787831E-06 -0.2138554E-05 -0.4439875E-09  0.6327387E-09  0.4304790E+00 -0.3903298E+01 -0.1766351E-14 -0.1957417E-13
  0.6000000E+00  0.2826800E+01  0.4681458E+01  0.1768607E-08  0.4703800E-07 -0.5787831E-06 -0.5299359E-05 -0.4439875E-09 -0.7204452E-08  0.4304790E+00  0.5794834E+00 -0.1766351E-14  0.1851243E-14
  0.7000000E+00  0.2826800E+01  0.2414756E+02  0.1768607E-08  0.7173056E-07 -0.5787831E-06 -0.6604175E-05 -0.4439875E-09 -0.9315475E-08  0.4304790E+00  0.3777251E+01 -0.1766351E-14  0.1802087E-13
  0.8000000E+00  0.2826800E+01  0.2401808E+02  0.1768607E-08  0.4179148E-07 -0.5787831E-06 -0.4305190E-05 -0.4439875E-09 -0.4457497E-08  0.4304790E+00  0.3880677E+01 -0.1766351E-14  0.1977900E-13
  0.9000000E+00  0.2826800E+01  0.8379204E+01  0.1768607E-08 -0.1774531E-07 -0.5787831E-06  0.1061877E-05 -0.4439875E-09  0.3031831E-08  0.4304790E+00  0.1475699E+01 -0.1766351E-14  0.8904070E-14
  0.1000000E+01  0.2826800E+01 -0.8674449E+01  0.1768607E-08 -0.6106994E-07 -0.5787831E-06  0.7079939E-05 -0.4439875E-09  0.7075266E-08  0.4304790E+00 -0.1236364E+01 -0.1766351E-14 -0.4794281E-14
  0.1100000E+01  0.2826800E+01 -0.1476284E+02  0.1768607E-08 -0.5711826E-07 -0.5787831E-06  0.1108408E-04 -0.4439875E-09  0.4925830E-08  0.4304790E+00 -0.2277742E+01 -0.1766351E-14 -0.1154455E-13
  0.1200000E+01  0.2826800E+01 -0.7992562E+01  0.1768607E-08 -0.1149784E-07 -0.5787831E-06  0.1185409E-04 -0.4439875E-09 -0.8013107E-09  0.4304790E+00 -0.1295813E+01 -0.1766351E-14 -0.8349472E-14
  0.1300000E+01  0.2826800E+01  0.3452413E+01  0.1768607E-08  0.4065218E-07 -0.5787831E-06  0.1022004E-04 -0.4439875E-09 -0.4699992E-08  0.4304790E+00  0.4668101E+00 -0.1766351E-14  0.2618946E-15
  0.1400000E+01  0.2826800E+01  0.9356133E+01  0.1768607E-08  0.6278301E-07 -0.5787831E-06  0.8247658E-05 -0.4439875E-09 -0.3381932E-08  0.4304790E+00  0.1412865E+01 -0.1766351E-14  0.7003842E-14
  0.1500000E+01  0.2826800E+01  0.5863205E+01  0.1768607E-08  0.4282897E-07 -0.5787831E-06  0.7657170E-05 -0.4439875E-09  0.1652652E-08  0.4304790E+00  0.9103650E+00 -0.1766351E-14  0.7603772E-14
  0.1600000E+01  0.2826800E+01 -0.2448255E+01  0.1768607E-08 -0.1921057E-08 -0.5787831E-06  0.8601084E-05 -0.4439875E-09  0.5480921E-08  0.4304790E+00 -0.3589083E+00 -0.1766351E-14  0.3071678E-14
  0.1700000E+01  0.2826800E+01 -0.7623203E+01  0.1768607E-08 -0.4133772E-07 -0.5787831E-06  0.9599883E-05 -0.4439875E-09  0.4193723E-08  0.4304790E+00 -0.1167143E+01 -0.1766351E-14 -0.2490919E-14
  0.1800000E+01  0.2826800E+01 -0.5473104E+01  0.1768607E-08 -0.5453351E-07 -0.5787831E-06  0.8602331E-05 -0.4439875E-09 -0.1575770E-08  0.4304790E+00 -0.8508723E+00 -0.1766351E-14 -0.5782471E-14
  0.1900000E+01  0.2826800E+01  0.1344550E+01  0.1768607E-08 -0.4036731E-07 -0.5787831E-06  0.4401244E-05 -0.4439875E-09 -0.7072300E-08  0.4304790E+00  0.1959472E+00 -0.1766351E-14 -0.6315872E-14
  0.2000000E+01  0.2826800E+01  0.6398241E+01  0.1768607E-08 -0.1170078E-07 -0.5787831E-06 -0.2523339E-05 -0.4439875E-09 -0.7425665E-08  0.4304790E+00  0.9836614E+00 -0.1766351E-14 -0.5344828E-14
  0.2100000E+01  0.2826800E+01  0.5429748E+01  0.1768607E-08  0.1740194E-07 -0.5787831E-06 -0.1020500E-04 -0.4439875E-09 -0.1838375E-08  0.4304790E+00  0.8457498E+00 -0.1766351E-14 -0.3548489E-14
  0.2200000E+01  0.2826800E+01 -0.1774084E+00  0.1768607E-08  0.3905508E-07 -0.5787831E-06 -0.1620997E-04 -0.4439875E-09  0.5585707E-08  0.4304790E+00 -0.1535115E-01 -0.1766351E-14 -0.2229355E-15
  0.2300000E+01  0.2826800E+01 -0.5126525E+01  0.1768607E-08  0.4949736E-07 -0.5787831E-06 -0.1879134E-04 -0.4439875E-09  0.9081846E-08  0.4304790E+00 -0.7852571E+00 -0.1766351E-14  0.5169780E-14
  0.2400000E+01  0.2826800E+01 -0.5158747E+01  0.1768607E-08  0.4420733E-07 -0.5787831E-06 -0.1753488E-04 -0.4439875E-09  0.5866519E-08  0.4304790E+00 -0.8004236E+00 -0.1766351E-14  0.1093422E-13
  0.2500000E+01  0.2826800E+01 -0.6677558E+00  0.1768607E-08  0.1893864E-07 -0.5787831E-06 -0.1327768E-04 -0.4439875E-09 -0.1609682E-08  0.4304790E+00 -0.1126853E+00 -0.1766351E-14  0.1318570E-13
  0.2600000E+01  0.2826800E+01  0.4033646E+01  0.1768607E-08 -0.2256894E-07 -0.5787831E-06 -0.7545016E-05 -0.4439875E-09 -0.7596049E-08  0.4304790E+00  0.6160866E+00 -0.1766351E-14  0.8677787E-14
  0.2700000E+01  0.2826800E+01  0.4798638E+01  0.1768607E-08 -0.6296453E-07 -0.5787831E-06 -0.1943125E-05 -0.4439875E-09 -0.7563067E-08  0.4304790E+00  0.7420609E+00 -0.1766351E-14 -0.1816049E-14
  0.2800000E+01  0.2826800E+01  0.1261802E+01  0.1768607E-08 -0.7723499E-07 -0.5787831E-06  0.2203664E-05 -0.4439875E-09 -0.1692919E-08  0.4304790E+00  0.2016562E+00 -0.1766351E-14 -0.1283745E-13
  0.2900000E+01  0.2826800E+01 -0.3130671E+01  0.1768607E-08 -0.4968297E-07 -0.5787831E-06  0.3988786E-05 -0.4439875E-09  0.5359051E-08  0.4304790E+00 -0.4773957E+00 -0.1766351E-14 -0.1754492E-13
  0.3000000E+01  0.2826800E+01 -0.4432873E+01  0.1768607E-08  0.1056434E-07 -0.5787831E-06  0.3043284E-05 -0.4439875E-09  0.8129806E-08  0.4304790E+00 -0.6841971E+00 -0.1766351E-14 -0.1275509E-13
  0.3100000E+01  0.2826800E+01 -0.1709102E+01  0.1768607E-08  0.7016576E-07 -0.5787831E-06 -0.2211376E-06 -0.4439875E-09  0.4510712E-08  0.4304790E+00 -0.2688036E+00 -0.1766351E-14 -0.1641838E-14
  0.3200000E+01  0.2826800E+01  0.2351607E+01  0.1768607E-08  0.9160169E-07 -0.5787831E-06 -0.4365262E-05 -0.4439875E-09 -0.2764300E-08  0.4304790E+00  0.3578410E+00 -0.1766351E-14  0.8391050E-14
  0.3300000E+01  0.2826800E+01  0.4056993E+01  0.1768607E-08  0.5964908E-07 -0.5787831E-06 -0.7001850E-05 -0.4439875E-09 -0.8292041E-08  0.4304790E+00  0.6253062E+00 -0.1766351E-14  0.1124238E-13
  0.3400000E+01  0.2826800E+01  0.2043680E+01  0.1768607E-08 -0.5964795E-08 -0.5787831E-06 -0.5478750E-05 -0.4439875E-09 -0.8038767E-08  0.4304790E+00  0.3190413E+00 -0.1766351E-14  0.6677644E-14
  0.3500000E+01  0.2826800E+01 -0.1665045E+01  0.1768607E-08 -0.6294297E-07 -0.5787831E-06  0.1905270E-05 -0.4439875E-09 -0.2193141E-08  0.4304790E+00 -0.2524565E+00 -0.1766351E-14  0.1614972E-15
  0.3600000E+01  0.2826800E+01 -0.3665218E+01  0.1768607E-08 -0.7594452E-07 -0.5787831E-06  0.1466081E-04 -0.4439875E-09  0.5144273E-08  0.4304790E+00 -0.5641368E+00 -0.1766351E-14 -0.1978011E-14
  0.3700000E+01  0.2826800E+01 -0.2277987E+01  0.1768607E-08 -0.4141083E-07 -0.5787831E-06  0.2957614E-04 -0.4439875E-09  0.9003389E-08  0.4304790E+00 -0.3539232E+00 -0.1766351E-14  0.1926527E-14
  0.3800000E+01  0.2826800E+01  0.1062039E+01  0.1768607E-08  0.1123797E-07 -0.5787831E-06  0.4141665E-04 -0.4439875E-09  0.6998799E-08  0.4304790E+00  0.1601114E+00 -0.1766351E-14  0.7339999E-14
  0.3900000E+01  0.2826800E+01  0.3264188E+01  0.1768607E-08  0.4292541E-07 -0.5787831E-06  0.4478743E-04 -0.4439875E-09  0.7868676E-09  0.4304790E+00  0.5018430E+00 -0.1766351E-14  0.7408763E-14
  0.4000000E+01  0.2826800E+01  0.2427121E+01  0.1768607E-08  0.3461777E-07 -0.5787831E-06  0.3642645E-04 -0.4439875E-09 -0.5307744E-08  0.4304790E+00  0.3758382E+00 -0.1766351E-14 -0.8291683E-15
  0.4100000E+01  0.2826800E+01 -0.5343178E+00  0.1768607E-08  0.3942474E-09 -0.5787831E-06  0.1685483E-04 -0.4439875E-09 -0.7350991E-08  0.4304790E+00 -0.7951782E-01 -0.1766351E-14 -0.1310149E-13
  0.4200000E+01  0.2826800E+01 -0.2859334E+01  0.1768607E-08 -0.2587776E-07 -0.5787831E-06 -0.9467203E-05 -0.4439875E-09 -0.4380930E-08  0.4304790E+00 -0.4393114E+00 -0.1766351E-14 -0.2045579E-13
  0.4300000E+01  0.2826800E+01 -0.2503146E+01  0.1768607E-08 -0.1919273E-07 -0.5787831E-06 -0.3562741E-04 -0.4439875E-09  0.1153702E-08  0.4304790E+00 -0.3867589E+00 -0.1766351E-14 -0.1600164E-13
  0.4400000E+01  0.2826800E+01  0.7579309E-01  0.1768607E-08  0.1562968E-07 -0.5787831E-06 -0.5473815E-04 -0.4439875E-09  0.5239559E-08  0.4304790E+00  0.9603512E-02 -0.1766351E-14 -0.6460804E-15
  0.4500000E+01  0.2826800E+01  0.2455528E+01  0.1768607E-08  0.4742090E-07 -0.5787831E-06 -0.6228227E-04 -0.4439875E-09  0.5084928E-08  0.4304790E+00  0.3772037E+00 -0.1766351E-14  0.1676949E-13
  0.4600000E+01  0.2826800E+01  0.2515578E+01  0.1768607E-08  0.4397918E-07 -0.5787831E-06 -0.5733864E-04 -0.4439875E-09  0.9701364E-09  0.4304790E+00  0.3881378E+00 -0.1766351E-14  0.2527855E-13
  0.4700000E+01  0.2826800E+01  0.3175611E+00  0.1768607E-08 -0.6243511E-09 -0.5787831E-06 -0.4231407E-04 -0.4439875E-09 -0.4028866E-08  0.4304790E+00  0.5027395E-01 -0.1766351E-14  0.1935041E-13
  0.4800000E+01  0.2826800E+01 -0.2058283E+01  0.1768607E-08 -0.5839563E-07 -0.5787831E-06 -0.2155138E-04 -0.4439875E-09 -0.6214735E-08  0.4304790E+00 -0.3163951E+00 -0.1766351E-14  0.2699652E-14
  0.4900000E+01  0.2826800E+01 -0.2473710E+01  0.1768607E-08 -0.8621452E-07 -0.5787831E-06  0.3655626E-06 -0.4439875E-09 -0.3858178E-08  0.4304790E+00 -0.3815296E+00 -0.1766351E-14 -0.1431577E-13
  0.5000000E+01  0.2826800E+01 -0.6498334E+00  0.1768607E-08 -0.5778005E-07 -0.5787831E-06  0.1982495E-04 -0.4439875E-09  0.1566710E-08  0.4304790E+00 -0.1009171E+00 -0.1766351E-14 -0.2166934E-13
  0.5100000E+01  0.2826800E+01  0.1671630E+01  0.1768607E-08  0.1481840E-07 -0.5787831E-06  0.3456906E-04 -0.4439875E-09  0.6372777E-08  0.4304790E+00  0.2574134E+00 -0.1766351E-14 -0.1600649E-13
  0.5200000E+01  0.2826800E+01  0.2384483E+01  0.1768607E-08  0.8635951E-07 -0.5787831E-06  0.4342172E-04 -0.4439875E-09  0.7220031E-08  0.4304790E+00  0.3681149E+00 -0.1766351E-14 -0.2153363E-14
  0.5300000E+01  0.2826800E+01  0.9231949E+00  0.1768607E-08  0.1079841E-06 -0.5787831E-06  0.4584430E-04 -0.4439875E-09  0.3460468E-08  0.4304790E+00  0.1429957E+00 -0.1766351E-14  0.1073239E-13
  0.5400000E+01  0.2826800E+01 -0.1300742E+01  0.1768607E-08  0.6102311E-07 -0.5787831E-06  0.4175959E-04 -0.4439875E-09 -0.2413625E-08  0.4304790E+00 -0.2006203E+00 -0.1766351E-14  0.1526644E-13
  0.5500000E+01  0.2826800E+01 -0.2255245E+01  0.1768607E-08 -0.2823291E-07 -0.5787831E-06  0.3176620E-04 -0.4439875E-09 -0.6558306E-08  0.4304790E+00 -0.3486992E+00 -0.1766351E-14  0.1003628E-13
  0.5600000E+01  0.2826800E+01 -0.1139576E+01  0.1768607E-08 -0.1036509E-06 -0.5787831E-06  0.1750726E-04 -0.4439875E-09 -0.6496604E-08  0.4304790E+00 -0.1767646E+00 -0.1766351E-14 -0.4177814E-15
  0.5700000E+01  0.2826800E+01  0.9516941E+00  0.1768607E-08 -0.1151386E-06 -0.5787831E-06  0.1773189E-05 -0.4439875E-09 -0.2753279E-08  0.4304790E+00  0.1466793E+00 -0.1766351E-14 -0.9135667E-14
  0.5800000E+01  0.2826800E+01  0.2095414E+01  0.1768607E-08 -0.5210723E-07 -0.5787831E-06 -0.1197704E-04 -0.4439875E-09  0.1781748E-08  0.4304790E+00  0.3242837E+00 -0.1766351E-14 -0.1110318E-13
  0.5900000E+01  0.2826800E+01  0.1304033E+01  0.1768607E-08  0.4766536E-07 -0.5787831E-06 -0.2065599E-04 -0.4439875E-09  0.4181376E-08  0.4304790E+00  0.2025988E+00 -0.1766351E-14 -0.5843298E-14
  0.6000000E+01  0.2826800E+01 -0.6272902E+00  0.1768607E-08  0.1205184E-06 -0.5787831E-06 -0.2273979E-04 -0.4439875E-09  0.3604931E-08  0.4304790E+00 -0.9619427E-01 -0.1766351E-14  0.2846460E-14
  0.6100000E+01  0.2826800E+01 -0.1912053E+01  0.1768607E-08  0.1173262E-06 -0.5787831E-06 -0.1899650E-04 -0.4439875E-09  0.1547250E-08  0.4304790E+00 -0.2958501E+00 -0.1766351E-14  0.9405155E-14
  0.6200000E+01  0.2826800E+01 -0.1421232E+01  0.1768607E-08  0.3629996E-07 -0.5787831E-06 -0.1226324E-04 -0.4439875E-09  0.1500803E-09  0.4304790E+00 -0.2209467E+00 -0.1766351E-14  0.9737441E-14
  0.6300000E+01  0.2826800E+01  0.3289117E+00  0.1768607E-08 -0.7351647E-07 -0.5787831E-06 -0.6234638E-05 -0.4439875E-09  0.1640389E-09  0.4304790E+00  0.4961897E-01 -0.1766351E-14  0.3548761E-14
  0.6400000E+01  0.2826800E+01  0.1710192E+01  0.1768607E-08 -0.1417538E-06 -0.5787831E-06 -0.3778597E-05 -0.4439875E-09  0.4178807E-09  0.4304790E+00  0.2642287E+00 -0.1766351E-14 -0.5361462E-14
  0.6500000E+01  0.2826800E+01  0.1493936E+01  0.1768607E-08 -0.1215940E-06 -0.5787831E-06 -0.5628396E-05 -0.4439875E-09 -0.7340277E-09  0.4304790E+00  0.2320746E+00 -0.1766351E-14 -0.1115561E-13
  0.6600000E+01  0.2826800E+01 -0.5959886E-01  0.1768607E-08 -0.2141948E-07 -0.5787831E-06 -0.1016169E-04 -0.4439875E-09 -0.3366659E-08  0.4304790E+00 -0.7683659E-02 -0.1766351E-14 -0.9512834E-14
  0.6700000E+01  0.2826800E+01 -0.1496427E+01  0.1768607E-08  0.9818442E-07 -0.5787831E-06 -0.1439550E-04 -0.4439875E-09 -0.5376207E-08  0.4304790E+00 -0.2306153E+00 -0.1766351E-14 -0.7313612E-15
  0.6800000E+01  0.2826800E+01 -0.1526763E+01  0.1768607E-08  0.1616968E-06 -0.5787831E-06 -0.1562196E-04 -0.4439875E-09 -0.4126429E-08  0.4304790E+00 -0.2366437E+00 -0.1766351E-14  0.9804038E-14
  0.6900000E+01  0.2826800E+01 -0.1797669E+00  0.1768607E-08  0.1270684E-06 -0.5787831E-06 -0.1273234E-04 -0.4439875E-09  0.9295164E-09  0.4304790E+00 -0.2916973E-01 -0.1766351E-14  0.1468286E-13
  0.7000000E+01  0.2826800E+01  0.1275760E+01  0.1768607E-08  0.1367954E-07 -0.5787831E-06 -0.6494403E-05 -0.4439875E-09  0.7038865E-08  0.4304790E+00  0.1962291E+00 -0.1766351E-14  0.9542849E-14
  0.7100000E+01  0.2826800E+01  0.1524063E+01  0.1768607E-08 -0.1091967E-06 -0.5787831E-06  0.1254003E-05 -0.4439875E-09  0.9747870E-08  0.4304790E+00  0.2357178E+00 -0.1766351E-14 -0.3258745E-14
  0.7200000E+01  0.2826800E+01  0.3895004E+00  0.1768607E-08 -0.1665454E-06 -0.5787831E-06  0.8831081E-05 -0.4439875E-09  0.6326024E-08  0.4304790E+00  0.6114561E-01 -0.1766351E-14 -0.1543496E-13
  0.7300000E+01  0.2826800E+01 -0.1050743E+01  0.1768607E-08 -0.1254023E-06 -0.5787831E-06  0.1546951E-04 -0.4439875E-09 -0.1720934E-08  0.4304790E+00 -0.1616269E+00 -0.1766351E-14 -0.1815784E-13
  0.7400000E+01  0.2826800E+01 -0.1486999E+01  0.1768607E-08 -0.1463114E-07 -0.5787831E-06  0.2114047E-04 -0.4439875E-09 -0.9295162E-08  0.4304790E+00 -0.2299079E+00 -0.1766351E-14 -0.8575136E-14
  0.7500000E+01  0.2826800E+01 -0.5664083E+00  0.1768607E-08  0.9594345E-07 -0.5787831E-06  0.2572298E-04 -0.4439875E-09 -0.1127367E-07  0.4304790E+00 -0.8829419E-01 -0.1766351E-14  0.7445296E-14
  0.7600000E+01  0.2826800E+01  0.8273785E+00  0.1768607E-08  0.1419360E-06 -0.5787831E-06  0.2830897E-04 -0.4439875E-09 -0.6310120E-08  0.4304790E+00  0.1272756E+00 -0.1766351E-14  0.1892057E-13
  0.7700000E+01  0.2826800E+01  0.1419415E+01  0.1768607E-08  0.1043428E-06 -0.5787831E-06  0.2731764E-04 -0.4439875E-09  0.2142968E-08  0.4304790E+00  0.2195811E+00 -0.1766351E-14  0.1757245E-13
  0.7800000E+01  0.2826800E+01  0.7081925E+00  0.1768607E-08  0.1683369E-07 -0.5787831E-06  0.2143674E-04 -0.4439875E-09  0.8436531E-08  0.4304790E+00  0.1103258E+00 -0.1766351E-14  0.4170318E-14
  0.7900000E+01  0.2826800E+01 -0.6131972E+00  0.1768607E-08 -0.6193170E-07 -0.5787831E-06  0.1072654E-04 -0.4439875E-09  0.8889772E-08  0.4304790E+00 -0.9402286E-01 -0.1766351E-14 -0.1164004E-13
  0.8000000E+01  0.2826800E+01 -0.1329139E+01  0.1768607E-08 -0.8901232E-07 -0.5787831E-06 -0.2953359E-05 -0.4439875E-09  0.4230969E-08  0.4304790E+00 -0.2054983E+00 -0.1766351E-14 -0.1830673E-13
  0.8100000E+01  0.2826800E+01 -0.8180657E+00  0.1768607E-08 -0.6183319E-07 -0.5787831E-06 -0.1655893E-04 -0.4439875E-09 -0.1486551E-08  0.4304790E+00 -0.1272976E+00 -0.1766351E-14 -0.1107951E-13
  0.8200000E+01  0.2826800E+01  0.4106545E+00  0.1768607E-08 -0.1187996E-07 -0.5787831E-06 -0.2712905E-04 -0.4439875E-09 -0.4369782E-08  0.4304790E+00  0.6255548E-01 -0.1766351E-14  0.4255064E-14
  0.8300000E+01  0.2826800E+01  0.1220869E+01  0.1768607E-08  0.2374410E-07 -0.5787831E-06 -0.3287663E-04 -0.4439875E-09 -0.3572616E-08  0.4304790E+00  0.1884895E+00 -0.1766351E-14  0.1570687E-13
  0.8400001E+01  0.2826800E+01  0.8986760E+00  0.1768607E-08  0.2912823E-07 -0.5787831E-06 -0.3346839E-04 -0.4439875E-09 -0.1299975E-08  0.4304790E+00  0.1395091E+00 -0.1766351E-14  0.1431492E-13
  0.8500000E+01  0.2826800E+01 -0.2204315E+00  0.1768607E-08  0.1531531E-07 -0.5787831E-06 -0.2952377E-04 -0.4439875E-09 -0.2570721E-09  0.4304790E+00 -0.3325854E-01 -0.1766351E-14  0.1147613E-14
  0.8600000E+01  0.2826800E+01 -0.1096162E+01  0.1768607E-08  0.4202924E-08 -0.5787831E-06 -0.2192437E-04 -0.4439875E-09 -0.1046087E-08  0.4304790E+00 -0.1691611E+00 -0.1766351E-14 -0.1347073E-13
  0.8700000E+01  0.2826800E+01 -0.9491163E+00  0.1768607E-08  0.6980078E-08 -0.5787831E-06 -0.1155532E-04 -0.4439875E-09 -0.1873425E-08  0.4304790E+00 -0.1471712E+00 -0.1766351E-14 -0.1798527E-13
  0.8800000E+01  0.2826800E+01  0.4683074E-01  0.1768607E-08  0.1578125E-07 -0.5787831E-06  0.4134970E-06 -0.4439875E-09 -0.6800348E-09  0.4304790E+00  0.6555786E-02 -0.1766351E-14 -0.8632609E-14
  0.8900001E+01  0.2826800E+01  0.9596657E+00  0.1768607E-08  0.1413079E-07 -0.5787831E-06  0.1217146E-04 -0.4439875E-09  0.2463418E-08  0.4304790E+00  0.1481638E+00 -0.1766351E-14  0.7629423E-14
  0.9000000E+01  0.2826800E+01  0.9702435E+00  0.1768607E-08 -0.4867409E-08 -0.5787831E-06  0.2143179E-04 -0.4439875E-09  0.5078852E-08  0.4304790E+00  0.1505387E+00 -0.1766351E-14  0.1856171E-13
  0.9100000E+01  0.2826800E+01  0.1059843E+00  0.1768607E-08 -0.2971727E-07 -0.5787831E-06  0.2625640E-04 -0.4439875E-09  0.4487668E-08  0.4304790E+00  0.1718511E-01 -0.1766351E-14  0.1611825E-13
  0.9200000E+01  0.2826800E+01 -0.8182165E+00  0.1768607E-08 -0.3922977E-07 -0.5787831E-06  0.2603436E-04 -0.4439875E-09  0.4781756E-09  0.4304790E+00 -0.1262106E+00 -0.1766351E-14  0.2494612E-14
  0.9300000E+01  0.2826800E+01 -0.9668646E+00  0.1768607E-08 -0.2121296E-07 -0.5787831E-06  0.2184021E-04 -0.4439875E-09 -0.4129035E-08  0.4304790E+00 -0.1500448E+00 -0.1766351E-14 -0.1188228E-13
  0.9400001E+01  0.2826800E+01 -0.2380316E+00  0.1768607E-08  0.1522078E-07 -0.5787831E-06  0.1578488E-04 -0.4439875E-09 -0.5722275E-08  0.4304790E+00 -0.3778070E-01 -0.1766351E-14 -0.1661818E-13
  0.9500000E+01  0.2826800E+01  0.6751522E+00  0.1768607E-08  0.4477850E-07 -0.5787831E-06  0.9742707E-05 -0.4439875E-09 -0.3049472E-08  0.4304790E+00  0.1038289E+00 -0.1766351E-14 -0.9216342E-14
  0.9600000E+01  0.2826800E+01  0.9422889E+00  0.1768607E-08  0.4495616E-07 -0.5787831E-06  0.4360655E-05 -0.4439875E-09  0.1570980E-08  0.4304790E+00  0.1460491E+00 -0.1766351E-14  0.3548417E-14
  0.9700000E+01  0.2826800E+01  0.3498340E+00  0.1768607E-08  0.1373617E-07 -0.5787831E-06 -0.9155177E-06 -0.4439875E-09  0.4188162E-08  0.4304790E+00  0.5505563E-01 -0.1766351E-14  0.1148471E-13
  0.9800000E+01  0.2826800E+01 -0.5322095E+00  0.1768607E-08 -0.2808430E-07 -0.5787831E-06 -0.6841372E-05 -0.4439875E-09  0.2687301E-08  0.4304790E+00 -0.8156377E-01 -0.1766351E-14  0.9102671E-14
  0.9900001E+01  0.2826800E+01 -0.8974337E+00  0.1768607E-08 -0.5171527E-07 -0.5787831E-06 -0.1321251E-04 -0.4439875E-09 -0.1294060E-08  0.4304790E+00 -0.1389112E+00 -0.1766351E-14 -0.4854797E-15
Zone t="DoF    2",I=   100,F=POINT
  0.0000000E+00 -0.8525660E-08  0.2419614E-07  0.2826792E+01  0.4720924E+02  0.1509226E-07  0.3562711E-05 -0.4304776E+00 -0.7699856E+01 -0.8385409E-10 -0.3449744E-08 -0.3722094E-09  0.5936282E-09
  0.1000000E+00 -0.8525660E-08  0.8630779E-08  0.2826792E+01  0.3265306E+02  0.1509226E-07  0.2650318E-05 -0.4304776E+00 -0.5354206E+01 -0.8385409E-10 -0.2676305E-08 -0.3722094E-09  0.2387922E-09
  0.2000000E+00 -0.8525660E-08 -0.2378828E-07  0.2826792E+01 -0.1173684E+01  0.1509226E-07  0.4107072E-06 -0.4304776E+00  0.1101550E+00 -0.8385409E-10 -0.7325925E-09 -0.3722094E-09 -0.5024731E-09
  0.3000000E+00 -0.8525660E-08 -0.4225427E-07  0.2826792E+01 -0.3182444E+02  0.1509226E-07 -0.1946123E-05 -0.4304776E+00  0.5099704E+01 -0.8385409E-10  0.1445507E-08 -0.3722094E-09 -0.9368321E-09
  0.4000000E+00 -0.8525660E-08 -0.2561542E-07  0.2826792E+01 -0.4016710E+02  0.1509226E-07 -0.3179357E-05 -0.4304776E+00  0.6532052E+01 -0.8385409E-10  0.2843267E-08 -0.3722094E-09 -0.5976819E-09
  0.5000000E+00 -0.8525660E-08  0.1883197E-07  0.2826792E+01 -0.2331463E+02  0.1509226E-07 -0.2699765E-05 -0.4304776E+00  0.3903296E+01 -0.8385409E-10  0.2880130E-08 -0.3722094E-09  0.3397655E-09
  0.6000000E+00 -0.8525660E-08  0.5951287E-07  0.2826792E+01  0.4681475E+01  0.1509226E-07 -0.8640118E-06 -0.4304776E+00 -0.5794860E+00 -0.8385409E-10  0.1679320E-08 -0.3722094E-09  0.1176438E-08
  0.7000000E+00 -0.8525660E-08  0.6463547E-07  0.2826792E+01  0.2414758E+02  0.1509226E-07  0.1269449E-05 -0.4304776E+00 -0.3777253E+01 -0.8385409E-10 -0.5085581E-10 -0.3722094E-09  0.1247488E-08
  0.8000000E+00 -0.8525660E-08  0.2705282E-07  0.2826792E+01  0.2401810E+02  0.1509226E-07  0.2556484E-05 -0.4304776E+00 -0.3880678E+01 -0.8385409E-10 -0.1445651E-08 -0.3722094E-09  0.4621376E-09
  0.9000000E+00 -0.8525660E-08 -0.2965472E-07  0.2826792E+01  0.8379214E+01  0.1509226E-07  0.2386952E-05 -0.4304776E+00 -0.1475700E+01 -0.8385409E-10 -0.1957982E-08 -0.3722094E-09 -0.6165561E-09
  0.1000000E+01 -0.8525660E-08 -0.6834681E-07  0.2826792E+01 -0.8674458E+01  0.1509226E-07  0.9648153E-06 -0.4304776E+00  0.1236365E+01 -0.8385409E-10 -0.1590286E-08 -0.3722094E-09 -0.1213390E-08
  0.1100000E+01 -0.8525660E-08 -0.6503396E-07  0.2826792E+01 -0.1476287E+02  0.1509226E-07 -0.8739046E-06 -0.4304776E+00  0.2277745E+01 -0.8385409E-10 -0.7651038E-09 -0.3722094E-09 -0.9409297E-09
  0.1200000E+01 -0.8525660E-08 -0.2472741E-07  0.2826792E+01 -0.7992596E+01  0.1509226E-07 -0.2158972E-05 -0.4304776E+00  0.1295817E+01 -0.8385409E-10  0.3289653E-10 -0.3722094E-09 -0.7574721E-10
  0.1300000E+01 -0.8525660E-08  0.2447904E-07  0.2826792E+01  0.3452390E+01  0.1509226E-07 -0.2296947E-05 -0.4304776E+00 -0.4668062E+00 -0.8385409E-10  0.5599949E-09 -0.3722094E-09  0.6945740E-09
  0.1400000E+01 -0.8525660E-08  0.5277450E-07  0.2826792E+01  0.9356131E+01  0.1509226E-07 -0.1324652E-05 -0.4304776E+00 -0.1412864E+01 -0.8385409E-10  0.8483114E-09 -0.3722094E-09  0.8266609E-09
  0.1500000E+01 -0.8525660E-08  0.4824154E-07  0.2826792E+01  0.5863224E+01  0.1509226E-07  0.1896938E-06 -0.4304776E+00 -0.9103662E+00 -0.8385409E-10  0.9987182E-09 -0.3722094E-09  0.3220486E-09
  0.1600000E+01 -0.8525660E-08  0.2093755E-07  0.2826792E+01 -0.2448222E+01  0.1509226E-07  0.1493865E-05 -0.4304776E+00  0.3589047E+00 -0.8385409E-10  0.9683845E-09 -0.3722094E-09 -0.3322140E-09
  0.1700000E+01 -0.8525660E-08 -0.8739092E-08  0.2826792E+01 -0.7623173E+01  0.1509226E-07  0.2034378E-05 -0.4304776E+00  0.1167138E+01 -0.8385409E-10  0.5849502E-09 -0.3722094E-09 -0.5990877E-09
  0.1800000E+01 -0.8525660E-08 -0.2576198E-07  0.2826792E+01 -0.5473091E+01  0.1509226E-07  0.1681967E-05 -0.4304776E+00  0.8508683E+00 -0.8385409E-10 -0.2076975E-09 -0.3722094E-09 -0.3228303E-09
  0.1900000E+01 -0.8525660E-08 -0.2779334E-07  0.2826792E+01  0.1344542E+01  0.1509226E-07  0.7198045E-06 -0.4304776E+00 -0.1959481E+00 -0.8385409E-10 -0.1119251E-08 -0.3722094E-09  0.1908241E-09
  0.2000000E+01 -0.8525660E-08 -0.2093175E-07  0.2826792E+01  0.6398218E+01  0.1509226E-07 -0.3571133E-06 -0.4304776E+00 -0.9836591E+00 -0.8385409E-10 -0.1580388E-08 -0.3722094E-09  0.4779736E-09
  0.2100000E+01 -0.8525660E-08 -0.1093299E-07  0.2826792E+01  0.5429721E+01  0.1509226E-07 -0.1102752E-05 -0.4304776E+00 -0.8457455E+00 -0.8385409E-10 -0.1142517E-08 -0.3722094E-09  0.3185702E-09
  0.2200000E+01 -0.8525660E-08  0.8390608E-09  0.2826792E+01 -0.1774243E+00  0.1509226E-07 -0.1306677E-05 -0.4304776E+00  0.1535533E-01 -0.8385409E-10  0.8827850E-10 -0.3722094E-09 -0.1047151E-09
  0.2300000E+01 -0.8525660E-08  0.1411041E-07  0.2826792E+01 -0.5126530E+01  0.1509226E-07 -0.1030154E-05 -0.4304776E+00  0.7852592E+00 -0.8385409E-10  0.1389359E-08 -0.3722094E-09 -0.4010997E-09
  0.2400000E+01 -0.8525660E-08  0.2466007E-07  0.2826792E+01 -0.5158739E+01  0.1509226E-07 -0.5031187E-06 -0.4304776E+00  0.8004234E+00 -0.8385409E-10  0.1877189E-08 -0.3722094E-09 -0.3245162E-09
  0.2500000E+01 -0.8525660E-08  0.2482953E-07  0.2826792E+01 -0.6677430E+00  0.1509226E-07  0.3322858E-07 -0.4304776E+00  0.1126831E+00 -0.8385409E-10  0.1178299E-08 -0.3722094E-09  0.2791626E-10
  0.2600000E+01 -0.8525660E-08  0.1055469E-07  0.2826792E+01  0.4033659E+01  0.1509226E-07  0.4341096E-06 -0.4304776E+00 -0.6160891E+00 -0.8385409E-10 -0.2334286E-09 -0.3722094E-09  0.3281487E-09
  0.2700000E+01 -0.8525660E-08 -0.1191941E-07  0.2826792E+01  0.4798648E+01  0.1509226E-07  0.6542870E-06 -0.4304776E+00 -0.7420626E+00 -0.8385409E-10 -0.1366289E-08 -0.3722094E-09  0.3192080E-09
  0.2800000E+01 -0.8525660E-08 -0.2770792E-07  0.2826792E+01  0.1261808E+01  0.1509226E-07  0.6795601E-06 -0.4304776E+00 -0.2016566E+00 -0.8385409E-10 -0.1491077E-08 -0.3722094E-09  0.3249578E-10
  0.2900000E+01 -0.8525660E-08 -0.2416115E-07  0.2826792E+01 -0.3130672E+01  0.1509226E-07  0.4798471E-06 -0.4304776E+00  0.4773965E+00 -0.8385409E-10 -0.7302399E-09 -0.3722094E-09 -0.2609695E-09
  0.3000000E+01 -0.8525660E-08 -0.2453131E-08  0.2826792E+01 -0.4432880E+01  0.1509226E-07  0.5328747E-07 -0.4304776E+00  0.6841978E+00 -0.8385409E-10  0.8183337E-10 -0.3722094E-09 -0.3039465E-09
  0.3100000E+01 -0.8525660E-08  0.2100488E-07  0.2826792E+01 -0.1709114E+01  0.1509226E-07 -0.4711168E-06 -0.4304776E+00  0.2688041E+00 -0.8385409E-10  0.1947351E-09 -0.3722094E-09 -0.7655582E-10
  0.3200000E+01 -0.8525660E-08  0.2648664E-07  0.2826792E+01  0.2351595E+01  0.1509226E-07 -0.7984655E-06 -0.4304776E+00 -0.3578409E+00 -0.8385409E-10 -0.2974221E-09 -0.3722094E-09  0.2026360E-09
  0.3300000E+01 -0.8525660E-08  0.7573839E-08  0.2826792E+01  0.4056990E+01  0.1509226E-07 -0.6101851E-06 -0.4304776E+00 -0.6253062E+00 -0.8385409E-10 -0.4754380E-09 -0.3722094E-09  0.2842075E-09
  0.3400000E+01 -0.8525660E-08 -0.2159666E-07  0.2826792E+01  0.2043687E+01  0.1509226E-07  0.1574359E-06 -0.4304776E+00 -0.3190412E+00 -0.8385409E-10  0.5053254E-09 -0.3722094E-09  0.1090185E-09
  0.3500000E+01 -0.8525660E-08 -0.3599843E-07  0.2826792E+01 -0.1665032E+01  0.1509226E-07  0.1114260E-05 -0.4304776E+00  0.2524570E+00 -0.8385409E-10  0.2377204E-08 -0.3722094E-09 -0.1518264E-09
  0.3600000E+01 -0.8525660E-08 -0.1993626E-07  0.2826792E+01 -0.3665206E+01  0.1509226E-07  0.1539361E-05 -0.4304776E+00  0.5641370E+00 -0.8385409E-10  0.3606559E-08 -0.3722094E-09 -0.2621062E-09
  0.3700000E+01 -0.8525660E-08  0.1830240E-07  0.2826792E+01 -0.2277982E+01  0.1509226E-07  0.8608893E-06 -0.4304776E+00  0.3539232E+00 -0.8385409E-10  0.2503411E-08 -0.3722094E-09 -0.1330510E-09
  0.3800000E+01 -0.8525660E-08  0.5033768E-07  0.2826792E+01  0.1062032E+01  0.1509226E-07 -0.7977155E-06 -0.4304776E+00 -0.1601115E+00 -0.8385409E-10 -0.1154822E-08 -0.3722094E-09  0.1068247E-09
  0.3900000E+01 -0.8525660E-08  0.4870977E-07  0.2826792E+01  0.3264174E+01  0.1509226E-07 -0.2467281E-05 -0.4304776E+00 -0.5018430E+00 -0.8385409E-10 -0.5390414E-08 -0.3722094E-09  0.2380330E-09
  0.4000000E+01 -0.8525660E-08  0.9301018E-08  0.2826792E+01  0.2427108E+01  0.1509226E-07 -0.2846248E-05 -0.4304776E+00 -0.3758383E+00 -0.8385409E-10 -0.7083407E-08 -0.3722094E-09  0.1498795E-09
  0.4100000E+01 -0.8525660E-08 -0.4288978E-07  0.2826792E+01 -0.5343231E+00  0.1509226E-07 -0.1250041E-05 -0.4304776E+00  0.7951805E-01 -0.8385409E-10 -0.4301626E-08 -0.3722094E-09 -0.6721500E-10
  0.4200000E+01 -0.8525660E-08 -0.7047647E-07  0.2826792E+01 -0.2859328E+01  0.1509226E-07  0.1672102E-05 -0.4304776E+00  0.4393116E+00 -0.8385409E-10  0.1843947E-08 -0.3722094E-09 -0.2128739E-09
  0.4300000E+01 -0.8525660E-08 -0.5123600E-07  0.2826792E+01 -0.2503137E+01  0.1509226E-07  0.4103741E-05 -0.4304776E+00  0.3867589E+00 -0.8385409E-10  0.7484631E-08 -0.3722094E-09 -0.1608202E-09
  0.4400000E+01 -0.8525660E-08  0.4246603E-08  0.2826792E+01  0.7580037E-01  0.1509226E-07  0.4188420E-05 -0.4304776E+00 -0.9603550E-02 -0.8385409E-10  0.8560136E-08 -0.3722094E-09  0.3246781E-10
  0.4500000E+01 -0.8525660E-08  0.5872993E-07  0.2826792E+01  0.2455531E+01  0.1509226E-07  0.1426610E-05 -0.4304776E+00 -0.3772037E+00 -0.8385409E-10  0.3921850E-08 -0.3722094E-09  0.1872873E-09
  0.4600000E+01 -0.8525660E-08  0.7441517E-07  0.2826792E+01  0.2515577E+01  0.1509226E-07 -0.2704631E-05 -0.4304776E+00 -0.3881376E+00 -0.8385409E-10 -0.3458264E-08 -0.3722094E-09  0.1670858E-09
  0.4700000E+01 -0.8525660E-08  0.4005501E-07  0.2826792E+01  0.3175595E+00  0.1509226E-07 -0.5527513E-05 -0.4304776E+00 -0.5027385E-01 -0.8385409E-10 -0.8366707E-08 -0.3722094E-09 -0.1751743E-11
  0.4800000E+01 -0.8525660E-08 -0.2077152E-07  0.2826792E+01 -0.2058282E+01  0.1509226E-07 -0.4954463E-05 -0.4304776E+00  0.3163950E+00 -0.8385409E-10 -0.7145573E-08 -0.3722094E-09 -0.1612115E-09
  0.4900000E+01 -0.8525660E-08 -0.6622840E-07  0.2826792E+01 -0.2473709E+01  0.1509226E-07 -0.1068077E-05 -0.4304776E+00  0.3815292E+00 -0.8385409E-10 -0.5803663E-09 -0.3722094E-09 -0.1690013E-09
  0.5000000E+01 -0.8525660E-08 -0.6553736E-07  0.2826792E+01 -0.6498348E+00  0.1509226E-07  0.3727687E-05 -0.4304776E+00  0.1009164E+00 -0.8385409E-10  0.6468074E-08 -0.3722094E-09 -0.2502416E-10