VARIABLES="w (rad/s)"
"A   1   1" "B   1   1"
"A   1   2" "B   1   2"
"A   1   3" "B   1   3"
"A   1   4" "B   1   4"
"A   1   5" "B   1   5"
"A   1   6" "B   1   6"
Zone t="Motion of body    1 in DoF   1",I=    50,F=POINT
  0.1000000E+00  0.3382536E+01 -0.5082417E-11  0.7194103E-08 -0.3015226E-17 -0.1473818E-05 -0.1151119E-09 -0.1346052E-08  0.4578213E-17  0.5297366E+00 -0.8628460E-12 -0.1266348E-14  0.3190785E-25
  0.3020408E+00  0.3378681E+01  0.1615888E-07  0.8945570E-07  0.1841246E-15 -0.5789146E-06 -0.1349908E-08 -0.4576971E-09  0.1376937E-16  0.5307223E+00  0.2815833E-08 -0.6846063E-14 -0.1033976E-23
  0.5040816E+00  0.3389767E+01  0.5795723E-06  0.2900530E-07  0.1177357E-13 -0.1880819E-05 -0.1786014E-07 -0.1688788E-08 -0.9870577E-15  0.5307443E+00  0.1103407E-06  0.1651850E-14  0.6286573E-21
  0.7061225E+00  0.3399329E+01  0.6111505E-05  0.9294299E-08  0.3907985E-13 -0.1744278E-05 -0.4715000E-07  0.1906259E-09 -0.1532108E-13  0.5335287E+00  0.1158188E-05  0.1859222E-13 -0.1005852E-19
  0.9081632E+00  0.3400027E+01  0.3534513E-04 -0.1025501E-08 -0.1397771E-12 -0.1560813E-05 -0.7310696E-07 -0.2323401E-08 -0.1065814E-13  0.5339608E+00  0.6689865E-05 -0.1036063E-13  0.6183341E-19
  0.1110204E+01  0.3424418E+01  0.1435033E-03  0.7569538E-08 -0.4583001E-12 -0.3025823E-05 -0.2951546E-06  0.5242970E-09 -0.2096101E-12  0.5363440E+00  0.2710972E-04 -0.9250159E-14 -0.8470329E-20
  0.1312245E+01  0.3440813E+01  0.4592569E-03  0.5777540E-08  0.5766054E-11 -0.1580540E-05 -0.2854479E-06 -0.8316996E-10 -0.5879741E-12  0.5381513E+00  0.8659396E-04 -0.9221930E-14  0.6572976E-18
  0.1514286E+01  0.3440620E+01  0.1239643E-02  0.2678238E-07 -0.1609379E-11 -0.5018598E-05 -0.9216055E-06 -0.4997072E-09 -0.2273737E-12  0.5401045E+00  0.2335029E-03 -0.1629461E-13  0.3361027E-17
  0.1716326E+01  0.3478166E+01  0.2952366E-02  0.1627877E-07 -0.5096013E-10 -0.1399974E-05 -0.5222582E-06  0.1924626E-08  0.1094236E-11  0.5445220E+00  0.5545638E-03 -0.8878156E-14 -0.1160096E-16
  0.1918367E+01  0.3482654E+01  0.6355667E-02 -0.1690066E-07 -0.7348433E-10 -0.4078005E-05 -0.1575640E-05 -0.2943203E-08 -0.1293188E-11  0.5467470E+00  0.1191751E-02  0.6047764E-14 -0.1848565E-16
  0.2120408E+01  0.3526329E+01  0.1265702E-01 -0.1721188E-07 -0.4331469E-10 -0.3339818E-05 -0.1720491E-05 -0.2031386E-08 -0.2501110E-11  0.5524127E+00  0.2366039E-02  0.8586865E-14 -0.8565197E-17
  0.2322449E+01  0.3536982E+01  0.2357090E-01 -0.5913001E-07  0.6122036E-10 -0.4882684E-05 -0.3513604E-05  0.3483764E-08 -0.1705303E-10  0.5565225E+00  0.4397523E-02  0.2215715E-13  0.2797242E-16
  0.2524490E+01  0.3580970E+01  0.4159302E-01  0.2115498E-08  0.3296918E-09 -0.6231714E-05 -0.5590991E-05 -0.5349269E-08  0.1853095E-10  0.5619999E+00  0.7732845E-02 -0.9697173E-14 -0.6678685E-16
  0.2726531E+01  0.3630048E+01  0.7004178E-01  0.7714322E-07 -0.6882601E-09 -0.2783654E-04 -0.3183261E-04 -0.2513799E-08 -0.1932676E-10  0.5701162E+00  0.1297936E-01  0.1119779E-13  0.1257675E-16
  0.2928571E+01  0.3653751E+01  0.1131533E+00 -0.7214912E-08 -0.6048140E-09 -0.5079171E-04 -0.6826641E-04 -0.9242242E-09  0.9049472E-10  0.5759281E+00  0.2090767E-01 -0.1163839E-13  0.2775558E-15
  0.3130612E+01  0.3705762E+01  0.1764184E+00 -0.2683909E-07 -0.2135039E-08 -0.2257584E-04 -0.3978692E-04 -0.1375887E-08 -0.6002665E-10  0.5835208E+00  0.3248018E-01  0.2837076E-15  0.2706169E-15
  0.3332653E+01  0.3771857E+01  0.2665609E+00  0.2129089E-07  0.8649295E-09  0.4468802E-04  0.8054532E-04  0.1694189E-08  0.4238245E-09  0.5933555E+00  0.4887377E-01  0.4597262E-14  0.3278627E-15
  0.3534693E+01  0.3821131E+01  0.3914434E+00  0.9920040E-07  0.1318767E-09  0.3790535E-04  0.7982412E-04  0.3013558E-08 -0.3637979E-10  0.6026530E+00  0.7149044E-01 -0.5025491E-14 -0.1214306E-15
  0.3736735E+01  0.3867029E+01  0.5597824E+00 -0.8005095E-07 -0.9209543E-08 -0.1225136E-04 -0.3710203E-04  0.9891487E-09  0.5529728E-09  0.6114201E+00  0.1018523E+00 -0.1114164E-13  0.4614364E-15
  0.3938775E+01  0.3933132E+01  0.7807470E+00  0.1795541E-08  0.8269126E-08 -0.3638489E-05 -0.7356284E-05  0.2512279E-08 -0.5275069E-10  0.6207294E+00  0.1414700E+00 -0.6060208E-14  0.7563394E-15
  0.4140816E+01  0.4005497E+01  0.1065034E+01  0.1480207E-07 -0.6868504E-08 -0.5736176E-05 -0.1839222E-04 -0.4139801E-08 -0.3637979E-09  0.6317122E+00  0.1921373E+00  0.2842040E-14 -0.2081668E-16
  0.4342857E+01  0.4068151E+01  0.1423902E+01  0.3768946E-07  0.2350134E-08 -0.6856373E-05 -0.3534369E-04  0.3880192E-08 -0.9276846E-09  0.6419478E+00  0.2556084E+00  0.5854236E-14 -0.6383782E-15
  0.4544898E+01  0.4112221E+01  0.1868298E+01 -0.2409685E-07 -0.9575160E-08 -0.1200808E-05 -0.4149973E-05 -0.3650067E-08  0.6148184E-09  0.6497172E+00  0.3335816E+00 -0.2100799E-14 -0.7494005E-14
  0.4746939E+01  0.4155456E+01  0.2402304E+01 -0.2004248E-07  0.7348717E-08  0.1360882E-04  0.7295702E-04 -0.1545030E-08  0.4438334E-09  0.6567265E+00  0.4269435E+00  0.5847047E-15 -0.8326673E-16
  0.4948979E+01  0.4198806E+01  0.3029792E+01  0.1006789E-07 -0.5587935E-08  0.1077170E-04  0.5638879E-04  0.3304995E-08  0.4780304E-08  0.6623011E+00  0.5360980E+00 -0.5832678E-14  0.4801715E-14
  0.5151020E+01  0.4232344E+01  0.3757729E+01 -0.5226352E-07  0.1222361E-08 -0.4483927E-06 -0.1549255E-04  0.4531388E-08  0.6621121E-09  0.6659943E+00  0.6613865E+00  0.4332245E-14  0.8715251E-14
  0.5353061E+01  0.4249763E+01  0.4583526E+01 -0.1086284E-07 -0.4953472E-07 -0.5302893E-05 -0.4173629E-04 -0.9460132E-09  0.3012246E-08  0.6674215E+00  0.8021724E+00  0.8047106E-14  0.1568190E-13
  0.5555102E+01  0.4255380E+01  0.5493357E+01  0.2111364E-07  0.4684262E-07 -0.7213049E-05 -0.4672259E-04 -0.8068241E-09  0.3099558E-08  0.6668676E+00  0.9567109E+00 -0.1303064E-13  0.2126077E-13
  0.5757143E+01  0.4247130E+01  0.6480289E+01 -0.2933059E-07  0.8572533E-07 -0.5370704E-06 -0.3302470E-05 -0.4408183E-08 -0.3929017E-08  0.6635000E+00  0.1122840E+01  0.1550455E-13  0.1310063E-13
  0.5959183E+01  0.4221838E+01  0.7533051E+01  0.5899706E-07  0.1461012E-07  0.6201333E-06  0.3159046E-05 -0.1640978E-08 -0.5442416E-08  0.6571991E+00  0.1297756E+01 -0.8849467E-14 -0.2609024E-14
  0.6161224E+01  0.4178435E+01  0.8628186E+01  0.4216383E-07  0.1640001E-07  0.2503188E-05  0.2167001E-04 -0.6821036E-08  0.5762558E-08  0.6480213E+00  0.1478167E+01 -0.2919162E-14 -0.2092770E-13
  0.6363265E+01  0.4120608E+01  0.9746656E+01  0.2403036E-07 -0.1766603E-07  0.8968894E-06  0.9410083E-05  0.4939624E-09  0.6722985E-08  0.6367517E+00  0.1661269E+01 -0.1221317E-13  0.8715251E-14
  0.6565306E+01  0.4048435E+01  0.1087207E+02 -0.1001852E-07  0.2500019E-07  0.2038175E-05  0.2254546E-04 -0.2943495E-08 -0.4307367E-08  0.6229705E+00  0.1842821E+01  0.3043881E-15 -0.1665335E-13
  0.6767346E+01  0.3963707E+01  0.1198339E+02  0.1836368E-07 -0.1440640E-06  0.8576482E-06 -0.1380965E-04 -0.4808101E-08 -0.1452281E-07  0.6070154E+00  0.2019710E+01 -0.1086050E-13  0.2531308E-13
  0.6969387E+01  0.3867535E+01  0.1306790E+02 -0.1727174E-07 -0.1446751E-06  0.3720273E-06  0.1146272E-04 -0.3491097E-08  0.8614734E-08  0.5892245E+00  0.2189488E+01  0.1076868E-13  0.1987299E-13
  0.7171429E+01  0.3762864E+01  0.1410577E+02 -0.1110352E-07 -0.5922629E-07 -0.2025905E-06 -0.1435354E-04 -0.3603773E-08 -0.1222361E-08  0.5705141E+00  0.2350163E+01 -0.1086780E-13  0.9992007E-15
  0.7373469E+01  0.3652408E+01  0.1508445E+02 -0.9441467E-08  0.2937159E-06 -0.1008437E-05 -0.1490861E-04  0.2052493E-09  0.2793968E-08  0.5512214E+00  0.2500107E+01  0.1475586E-14  0.3486100E-13
  0.7575510E+01  0.3537870E+01  0.1599991E+02 -0.3811096E-08 -0.6079790E-07 -0.4927379E-06  0.7748604E-06 -0.6607950E-09 -0.1993612E-07  0.5312328E+00  0.2637113E+01 -0.9086362E-15 -0.4551914E-14
  0.7777551E+01  0.3420676E+01  0.1684880E+02 -0.1569407E-07 -0.1664739E-06  0.5240040E-06 -0.5781651E-05 -0.3592349E-09 -0.1920853E-08  0.5108916E+00  0.2761063E+01 -0.4710655E-15  0.3108624E-14
  0.7979591E+01  0.3303101E+01  0.1762672E+02  0.1643466E-07  0.1809385E-06  0.2016802E-06  0.1327693E-04 -0.6127436E-09 -0.2386514E-08  0.4906447E+00  0.2871247E+01 -0.1612549E-13  0.5007106E-13
  0.8181633E+01  0.3186169E+01  0.1833216E+02 -0.1309055E-08  0.3696186E-07 -0.2449641E-06 -0.8676201E-05  0.2162787E-08  0.1132139E-07  0.4707932E+00  0.2968404E+01  0.5536437E-14  0.6661338E-14
  0.8383674E+01  0.3071661E+01  0.1895794E+02 -0.1482326E-07  0.4457834E-06  0.4443506E-06 -0.9156764E-05 -0.9442450E-09 -0.4016329E-08  0.4518595E+00  0.3054147E+01  0.3045816E-15  0.9126033E-13
  0.8585714E+01  0.2959875E+01  0.1951200E+02 -0.9830412E-09 -0.1020962E-06  0.1562018E-06 -0.4589558E-05 -0.9525331E-09  0.1525041E-07  0.4336084E+00  0.3127709E+01 -0.7047422E-14 -0.5395684E-13
  0.8787755E+01  0.2852244E+01  0.2000169E+02  0.2798523E-07 -0.1781737E-06 -0.9834905E-07 -0.1512468E-04 -0.4570369E-09 -0.2240995E-08  0.4159338E+00  0.3188457E+01 -0.2476215E-14 -0.1487699E-13
  0.8989796E+01  0.2748855E+01  0.2042985E+02 -0.2544620E-07  0.3268360E-07 -0.2038804E-06  0.1140311E-04  0.1447131E-08 -0.1495937E-07  0.3990705E+00  0.3238131E+01 -0.5149872E-14  0.2686740E-13
  0.9191836E+01  0.2649620E+01  0.2080059E+02 -0.1459650E-07  0.6516348E-07  0.8470404E-06 -0.1153722E-04  0.4749404E-09 -0.1039007E-07  0.3830503E+00  0.3277314E+01  0.3744291E-14  0.2020606E-13
  0.9393878E+01  0.2554649E+01  0.2111851E+02 -0.1387980E-07  0.1899898E-06 -0.5849345E-06 -0.2309680E-06  0.9480400E-09 -0.3719470E-07  0.3679030E+00  0.3307095E+01  0.7091148E-16  0.1088019E-13
  0.9595919E+01  0.2464995E+01  0.2137687E+02 -0.1250784E-07 -0.4429603E-07 -0.6254162E-06  0.8568168E-06 -0.6035548E-09  0.3812602E-08  0.3539506E+00  0.3331319E+01  0.3679178E-14  0.8437695E-14
  0.9797959E+01  0.2380478E+01  0.2158343E+02 -0.2305028E-07  0.1167646E-06  0.7801926E-06  0.5587935E-07 -0.4158556E-08  0.2910383E-09  0.3409526E+00  0.3349157E+01  0.3512662E-15  0.4141132E-13
  0.1000000E+02  0.2300718E+01  0.2174805E+02  0.7555355E-08  0.7601921E-07 -0.1873821E-06 -0.2738088E-05  0.3867899E-08 -0.3410969E-07  0.3287024E+00  0.3357851E+01  0.6439294E-15 -0.1620926E-13
Zone t="Motion of body    1 in DoF   2",I=    50,F=POINT
  0.1000000E+00 -0.4083631E-08  0.1964058E-18  0.3382532E+01 -0.6411731E-11 -0.1519838E-05 -0.1856696E-17 -0.5297358E+00  0.7943433E-12  0.2846718E-08 -0.5505714E-20 -0.4185594E-09 -0.7953285E-19
  0.3020408E+00 -0.2927455E-07  0.1644735E-15  0.3378681E+01  0.1598339E-07 -0.9483484E-06 -0.2677329E-14 -0.5307208E+00 -0.2807625E-08  0.0000000E+00 -0.5963112E-17 -0.4196016E-09 -0.3302595E-17
  0.5040816E+00 -0.1349587E-07  0.2301978E-14  0.3389760E+01  0.5813079E-06  0.1262405E-05 -0.1424139E-12 -0.5307425E+00 -0.1105043E-06 -0.6856191E-09 -0.4163336E-15 -0.4184637E-09 -0.7670529E-16
  0.7061225E+00 -0.7032549E-08 -0.5601075E-13  0.3399322E+01  0.6112540E-05  0.2214145E-06 -0.4463097E-13 -0.5335273E+00 -0.1157571E-05 -0.2282358E-08 -0.3955170E-14 -0.4289945E-09 -0.7106475E-15
  0.9081632E+00 -0.5427145E-07  0.2029488E-12  0.3400021E+01  0.3534081E-04  0.4949967E-06 -0.5740297E-11 -0.5339602E+00 -0.6688935E-05 -0.3204692E-09 -0.1154632E-13 -0.4293880E-09 -0.4081842E-14
  0.1110204E+01 -0.3670079E-08  0.1275424E-11  0.3424413E+01  0.1435055E-03  0.9326719E-06 -0.1624301E-10 -0.5363430E+00 -0.2711142E-04 -0.1769502E-09  0.9592327E-13 -0.4316058E-09 -0.1665888E-13
  0.1312245E+01 -0.7500822E-07  0.5612399E-11  0.3440801E+01  0.4592357E-03 -0.5086897E-06 -0.2095462E-09 -0.5381483E+00 -0.8659247E-04 -0.1996079E-09 -0.2220446E-12 -0.4245106E-09 -0.5303697E-13
  0.1514286E+01  0.1624048E-07 -0.2595968E-10  0.3440612E+01  0.1239642E-02  0.6033772E-06 -0.6120047E-09 -0.5401030E+00 -0.2335007E-03 -0.2133365E-08 -0.2948752E-12 -0.4216106E-09 -0.1410226E-12
  0.1716326E+01  0.7418711E-08  0.3615241E-10  0.3478157E+01  0.2952341E-02  0.1181839E-05 -0.6318714E-09 -0.5445203E+00 -0.5545600E-03 -0.5239729E-08 -0.1691092E-11 -0.4280125E-09 -0.3310656E-12
  0.1918367E+01 -0.1300926E-07  0.5761081E-10  0.3482645E+01  0.6355664E-02 -0.5416100E-06  0.2812726E-08 -0.5467449E+00 -0.1191747E-02 -0.1926736E-08 -0.2941647E-11 -0.4208814E-09 -0.6997316E-12
  0.2120408E+01  0.2261976E-07  0.1666933E-09  0.3526318E+01  0.1265700E-01 -0.1837251E-05 -0.3419018E-08 -0.5524109E+00 -0.2366025E-02 -0.4323558E-09  0.1875833E-11 -0.4262162E-09 -0.1371778E-11
  0.2322449E+01  0.7330943E-08  0.1865601E-09  0.3536965E+01  0.2357076E-01 -0.2573925E-05 -0.6525624E-09 -0.5565203E+00 -0.4397500E-02  0.4135404E-09 -0.6082246E-11 -0.4290112E-09 -0.2514770E-11
  0.2524490E+01 -0.2263640E-07 -0.1651870E-09  0.3580951E+01  0.4159279E-01  0.3136240E-06  0.2679917E-07 -0.5619969E+00 -0.7732813E-02  0.2432534E-08 -0.2341949E-10 -0.4216836E-09 -0.4323876E-11
  0.2726531E+01 -0.1692945E-07  0.5102265E-09  0.3630023E+01  0.7004146E-01  0.1423312E-05 -0.1714852E-07 -0.5701119E+00 -0.1297927E-01 -0.1926713E-08 -0.2137313E-10 -0.4265531E-09 -0.7122044E-11
  0.2928571E+01  0.2086958E-07 -0.7512426E-09  0.3653715E+01  0.1131526E+00 -0.2926511E-06  0.3035893E-07 -0.5759220E+00 -0.2090755E-01  0.5465842E-09  0.3728928E-10 -0.4285136E-09 -0.1124477E-10
  0.3130612E+01  0.3345821E-07 -0.4774847E-09  0.3705724E+01  0.1764169E+00 -0.2647726E-05  0.2195884E-07 -0.5835143E+00 -0.3247990E-01  0.4257811E-08  0.3547029E-10 -0.4218277E-09 -0.1699279E-10
  0.3332653E+01 -0.2038266E-07  0.2147317E-08  0.3771833E+01  0.2665588E+00  0.2808825E-05  0.1534827E-06 -0.5933503E+00 -0.4887332E-01 -0.8820261E-09  0.2819434E-10 -0.4249952E-09 -0.2488692E-10
  0.3534693E+01  0.4083947E-08 -0.1661647E-08  0.3821119E+01  0.3914413E+00 -0.1761038E-06  0.3383102E-06 -0.6026503E+00 -0.7149006E-01  0.9057141E-09 -0.2009983E-09 -0.4318483E-09 -0.3539327E-10
  0.3736735E+01 -0.3804717E-07 -0.1427907E-08  0.3867017E+01  0.5597811E+00 -0.3037917E-05  0.2415327E-06 -0.6114181E+00 -0.1018521E+00 -0.2858406E-08 -0.3019522E-09 -0.4250823E-09 -0.4889065E-10
  0.3938775E+01 -0.1981006E-07 -0.1136323E-07  0.3933131E+01  0.7807471E+00  0.1741039E-05  0.2986053E-06 -0.6207284E+00 -0.1414701E+00  0.2970401E-08 -0.6912160E-10 -0.4210018E-09 -0.6557381E-10
  0.4140816E+01  0.2244208E-07  0.2007619E-07  0.4005491E+01  0.1065033E+01  0.6230085E-06  0.7129129E-06 -0.6317093E+00 -0.1921371E+00 -0.2467012E-08  0.7239578E-09 -0.4205864E-09 -0.8541832E-10
  0.4342857E+01  0.3280404E-07 -0.7410563E-08  0.4068144E+01  0.1423902E+01 -0.1288358E-05 -0.1230219E-06 -0.6419469E+00 -0.2556081E+00 -0.3772967E-08  0.7421477E-09 -0.4219535E-09 -0.1084727E-09
  0.4544898E+01  0.1246786E-07 -0.1817898E-07  0.4112216E+01  0.1868297E+01  0.3181322E-06  0.1074048E-05 -0.6497170E+00 -0.3335817E+00 -0.7120833E-08  0.7094059E-09 -0.4229311E-09 -0.1350448E-09
  0.4746939E+01 -0.3812301E-07 -0.8330971E-08  0.4155446E+01  0.2402297E+01  0.2218565E-05 -0.3330351E-06 -0.6567239E+00 -0.4269420E+00  0.2004861E-08 -0.2932211E-08 -0.4125709E-09 -0.1653606E-09
  0.4948979E+01 -0.3744877E-07 -0.3470632E-08  0.4198785E+01  0.3029775E+01 -0.1436038E-05 -0.8319039E-06 -0.6622974E+00 -0.5360955E+00 -0.2952149E-08 -0.5347829E-08 -0.4055856E-09 -0.1959802E-09
  0.5151020E+01  0.2525599E-07  0.4275353E-07  0.4232326E+01  0.3757714E+01 -0.1198682E-05  0.1144770E-05 -0.6659898E+00 -0.6613837E+00  0.4022878E-08  0.2364686E-08 -0.4009601E-09 -0.2251332E-09
  0.5353061E+01 -0.5725011E-07 -0.3977038E-07  0.4249750E+01  0.4583514E+01 -0.7477202E-06 -0.2244022E-05 -0.6674190E+00 -0.8021693E+00  0.4632203E-08  0.5136826E-08 -0.3924202E-09 -0.2549618E-09
  0.5555102E+01 -0.6161202E-08 -0.1573062E-07  0.4255368E+01  0.5493340E+01  0.2041537E-05 -0.2643035E-05 -0.6668654E+00 -0.9567065E+00  0.1362170E-08 -0.5020411E-08 -0.3813141E-09 -0.2828010E-09
  0.5757143E+01  0.1239549E-07 -0.1004082E-07  0.4247121E+01  0.6480265E+01  0.4050675E-06  0.4094443E-05 -0.6634980E+00 -0.1122836E+01 -0.2375970E-08 -0.2764864E-09 -0.3707122E-09 -0.3014396E-09
  0.5959183E+01  0.5862588E-07 -0.8899951E-07  0.4221820E+01  0.7533021E+01 -0.6660416E-06  0.1180451E-06 -0.6571960E+00 -0.1297749E+01  0.3057298E-08 -0.6548362E-09 -0.3592382E-09 -0.3144109E-09
  0.6161224E+01 -0.2696293E-07  0.4222966E-07  0.4178420E+01  0.8628145E+01 -0.2541167E-05 -0.8295756E-06 -0.6480198E+00 -0.1478165E+01 -0.8502677E-10 -0.1367880E-08 -0.3472098E-09 -0.3205096E-09
  0.6363265E+01  0.2922611E-07 -0.6088521E-07  0.4120602E+01  0.9746632E+01  0.2812915E-05  0.2064626E-05 -0.6367503E+00 -0.1661267E+01 -0.3466884E-08  0.1164153E-08 -0.3346324E-09 -0.3103348E-09
  0.6565306E+01 -0.2257270E-07 -0.1513981E-06  0.4048434E+01  0.1087206E+02  0.2341958E-05  0.1962995E-05 -0.6229704E+00 -0.1842820E+01 -0.5585547E-09 -0.1263106E-07 -0.3217350E-09 -0.2919394E-09
  0.6767346E+01  0.3492109E-08  0.7639755E-07  0.3963712E+01  0.1198340E+02  0.2152137E-05  0.2128654E-05 -0.6070160E+00 -0.2019712E+01 -0.2976034E-08 -0.8614734E-08 -0.3101165E-09 -0.2625172E-09
  0.6969387E+01  0.1198498E-07 -0.5355105E-08  0.3867541E+01  0.1306791E+02 -0.1350102E-05  0.4138565E-05 -0.5892259E+00 -0.2189489E+01  0.2839648E-08  0.8294592E-08 -0.2987356E-09 -0.2152013E-09
  0.7171429E+01 -0.8149072E-08 -0.2555316E-07  0.3762872E+01  0.1410579E+02  0.1392939E-05 -0.1209578E-04 -0.5705150E+00 -0.2350165E+01  0.2386282E-08 -0.1833541E-08 -0.2874615E-09 -0.1579689E-09
  0.7373469E+01 -0.2050125E-07  0.3300374E-07  0.3652413E+01  0.1508448E+02 -0.2290108E-05  0.2303533E-04 -0.5512218E+00 -0.2500109E+01 -0.1152554E-08  0.3434252E-08 -0.2767428E-09 -0.8494165E-10
  0.7575510E+01  0.1986995E-07 -0.9659561E-07  0.3537873E+01  0.1599993E+02 -0.8522103E-06  0.1028157E-04 -0.5312327E+00 -0.2637119E+01 -0.4425790E-08 -0.5238689E-09 -0.2674323E-09 -0.4149042E-11
  0.7777551E+01 -0.2822988E-07  0.2756133E-07  0.3420678E+01  0.1684882E+02 -0.1816711E-05 -0.8678762E-05 -0.5108918E+00 -0.2761064E+01  0.1204934E-08 -0.6344635E-08 -0.2606688E-09  0.8860514E-10
  0.7979591E+01  0.1810512E-07  0.2572779E-07  0.3303105E+01  0.1762673E+02  0.9976342E-06 -0.1254817E-04 -0.4906449E+00 -0.2871249E+01 -0.5616816E-09  0.1050648E-07 -0.2542037E-09  0.1918075E-09
  0.8181633E+01  0.4615843E-07  0.1781737E-06  0.3186170E+01  0.1833215E+02  0.1049293E-05  0.8545583E-05 -0.4707934E+00 -0.2968402E+01  0.5620400E-09 -0.1947046E-07 -0.2485578E-09  0.3047472E-09
  0.8383674E+01 -0.2423099E-08  0.7989001E-07  0.3071662E+01  0.1895796E+02  0.1069746E-05  0.6254530E-05 -0.4518594E+00 -0.3054146E+01 -0.3561748E-08 -0.5326001E-08 -0.2445762E-09  0.4263812E-09
  0.8585714E+01 -0.3256917E-07  0.1816079E-07  0.2959877E+01  0.1951200E+02 -0.1445952E-06 -0.1650769E-06 -0.4336085E+00 -0.3127709E+01  0.1040668E-08  0.1507578E-07 -0.2407255E-09  0.5568395E-09
  0.8787755E+01  0.2291808E-08  0.9048381E-07  0.2852245E+01  0.2000170E+02  0.2151968E-05  0.9769574E-06 -0.4159341E+00 -0.3188456E+01  0.1258508E-08  0.4889444E-08 -0.2389897E-09  0.6852223E-09
  0.8989796E+01 -0.3865491E-07 -0.3114401E-06  0.2748857E+01  0.2042984E+02  0.1354100E-05  0.6914372E-05 -0.3990701E+00 -0.3238129E+01  0.2926636E-08  0.1478475E-07 -0.2388976E-09  0.8197800E-09
  0.9191836E+01 -0.4045226E-07  0.2303859E-06  0.2649622E+01  0.2080060E+02  0.6791014E-07 -0.8048955E-06 -0.3830502E+00 -0.3277310E+01  0.2406365E-09 -0.2502929E-07 -0.2390021E-09  0.9585416E-09
  0.9393878E+01  0.1028592E-08  0.9775977E-07  0.2554649E+01  0.2111850E+02  0.8814665E-06 -0.1833192E-04 -0.3679027E+00 -0.3307096E+01 -0.6784992E-09 -0.1533772E-07 -0.2396603E-09  0.1098130E-08
  0.9595919E+01  0.8674204E-08 -0.5142647E-07  0.2464994E+01  0.2137685E+02 -0.3145521E-06  0.1265318E-04 -0.3539504E+00 -0.3331318E+01 -0.6854441E-09  0.9196810E-08 -0.2417880E-09  0.1245116E-08
  0.9797959E+01 -0.1515497E-07  0.1284643E-06  0.2380477E+01  0.2158341E+02 -0.9450853E-06  0.3210269E-05 -0.3409526E+00 -0.3349158E+01  0.1081225E-08  0.1129229E-07 -0.2443035E-09  0.1402614E-08
  0.1000000E+02 -0.2811430E-07  0.8789357E-08  0.2300719E+01  0.2174806E+02 -0.5467097E-06 -0.6147893E-05 -0.3287024E+00 -0.3357851E+01  0.2136221E-08 -0.7799827E-08 -0.2471107E-09  0.1547224E-08
Zone t="Motion of body    1 in DoF   3",I=    50,F=POINT
  0.1000000E+00  0.1583248E-06  0.8009238E-10 -0.2096567E-05 -0.1137081E-09  0.4062263E+02  0.2380237E-02  0.8648203E-06 -0.5164580E-10  0.1164153E-07  0.6878054E-11  0.1318390E-14  0.5556536E-18
  0.3020408E+00  0.5920191E-06 -0.2191882E-08 -0.2098975E-05 -0.5306674E-08  0.4087526E+02  0.6531818E-01  0.4425690E-06  0.5364313E-09  0.1788391E-06 -0.1455192E-10  0.2563828E-13  0.4445229E-16
  0.5040816E+00  0.6928362E-07  0.1731678E-08 -0.3384793E-06 -0.2271190E-07  0.4129110E+02  0.3011011E+00 -0.1807148E-07 -0.9331416E-09 -0.2032319E-07  0.8876668E-09 -0.6827647E-14 -0.4076600E-16
  0.7061225E+00 -0.6983707E-06  0.2613524E-07  0.1739332E-06 -0.6290429E-07  0.4167541E+02  0.8171738E+00  0.1452507E-05  0.6067239E-08 -0.1055140E-07 -0.1688022E-08  0.1839569E-13 -0.5100087E-15
  0.9081632E+00  0.1281877E-06  0.1047738E-08  0.2729148E-05  0.6058144E-07  0.4210011E+02  0.1708563E+01 -0.5557577E-06  0.2626621E-08  0.1445957E-06 -0.5878974E-08 -0.8557450E-15  0.6245005E-16
  0.1110204E+01  0.1101443E-05  0.5128095E-07 -0.1682600E-05 -0.7287963E-07  0.4244054E+02  0.3053247E+01 -0.1351690E-05  0.8701682E-07  0.4336985E-06 -0.7392373E-08 -0.1730030E-13  0.4163336E-15
  0.1312245E+01  0.7813984E-06 -0.1315493E-07 -0.1455807E-06  0.3030764E-06  0.4268761E+02  0.4907938E+01  0.5345943E-06 -0.2299203E-07  0.1873653E-06 -0.8847564E-08  0.1920530E-13 -0.9020562E-15
  0.1514286E+01  0.2505609E-05  0.2348097E-06 -0.5695124E-06  0.4200410E-07  0.4280977E+02  0.7305402E+01  0.5436814E-06  0.1189037E-06  0.3702446E-06 -0.2468005E-07 -0.1033764E-13 -0.2775558E-15
  0.1716326E+01  0.6527787E-06  0.9126961E-07 -0.1557471E-05 -0.3785826E-06  0.4280734E+02  0.1025273E+02  0.1019594E-05 -0.2010347E-06  0.1248039E-06  0.2817251E-07  0.7762323E-15 -0.3330669E-15
  0.1918367E+01  0.9350282E-06 -0.2752058E-06  0.9378804E-06 -0.1001172E-06  0.4266144E+02  0.1373163E+02  0.4575618E-07  0.1087174E-06  0.1242820E-06 -0.6519258E-08 -0.5671587E-14  0.5384582E-14
  0.2120408E+01  0.9232374E-06  0.9639189E-07  0.7711031E-07 -0.6693153E-06  0.4236061E+02  0.1770222E+02  0.1680615E-05  0.2535817E-06  0.1405499E-07 -0.7264316E-07  0.7330251E-15 -0.6328271E-14
  0.2322449E+01  0.3167970E-06  0.2933666E-07 -0.4274504E-06  0.1507331E-05  0.4191720E+02  0.2210298E+02  0.6586571E-07 -0.7695053E-07 -0.2999546E-06 -0.1271255E-06 -0.1262025E-13  0.2442491E-14
  0.2524490E+01 -0.7120062E-06  0.9275973E-06 -0.1176793E-05 -0.2680492E-05  0.4135726E+02  0.2685647E+02 -0.7892939E-06  0.1107401E-06  0.7378302E-07  0.1359731E-06  0.1486460E-13 -0.8770762E-14
  0.2726531E+01 -0.3602280E-05  0.1050532E-05 -0.7610354E-06 -0.1133565E-05  0.4065965E+02  0.3188316E+02 -0.2454237E-06  0.8440111E-09 -0.8935676E-06  0.5215406E-07 -0.1718352E-13 -0.1393330E-13
  0.2928571E+01 -0.7405878E-05  0.7823110E-06 -0.1146595E-05 -0.3679481E-05  0.3986634E+02  0.3708675E+02  0.4256599E-06  0.1963344E-06 -0.1639673E-05  0.1657754E-06  0.1895503E-14 -0.1021405E-13
  0.3130612E+01  0.1633810E-05  0.1395121E-05  0.3615607E-06  0.2408051E-06  0.3898450E+02  0.4238136E+02  0.1331263E-07 -0.5697948E-06  0.2974890E-06  0.2551824E-06  0.1191572E-13  0.9769963E-14
  0.3332653E+01  0.1547503E-04  0.1813285E-05 -0.5734043E-06  0.1788721E-05  0.3804080E+02  0.4768124E+02 -0.6579390E-06 -0.7426133E-06  0.2677167E-05  0.3492460E-06  0.1086020E-13 -0.1043610E-13
  0.3534693E+01  0.8906693E-05  0.2719462E-05 -0.3379137E-07  0.3095309E-05  0.3703794E+02  0.5291270E+02 -0.9992497E-07 -0.2681627E-06  0.8136277E-06  0.4675239E-06 -0.3894756E-14 -0.1987299E-13
  0.3736735E+01 -0.3985257E-05 -0.1862645E-06 -0.9893668E-06  0.2005021E-05  0.3600260E+02  0.5800165E+02  0.5464462E-07  0.6263726E-06 -0.1161432E-05 -0.3315508E-06 -0.3743592E-14  0.6661338E-14
  0.3938775E+01 -0.1107531E-05  0.2227724E-05  0.7937324E-06  0.4268950E-05  0.3496671E+02  0.6287843E+02 -0.3362907E-06 -0.6195041E-06 -0.3669701E-06  0.2402812E-06 -0.1037282E-13 -0.3430589E-13
  0.4140816E+01 -0.7107244E-07 -0.1250766E-05 -0.1931945E-05  0.5132752E-05  0.3391369E+02  0.6752724E+02  0.8586046E-07 -0.3766036E-06  0.2429058E-07  0.1192093E-06  0.3968131E-14 -0.1021405E-13
  0.4342857E+01 -0.1409790E-05  0.7543713E-06 -0.1572449E-06  0.2503220E-05  0.3287133E+02  0.7189555E+02  0.8181240E-07 -0.1317880E-05 -0.2213117E-06  0.2048910E-06 -0.8282849E-14  0.3264056E-13
  0.4544898E+01  0.9426138E-06  0.1849607E-05 -0.1144943E-05 -0.4455505E-05  0.3185302E+02  0.7593993E+02  0.8120311E-06  0.1222710E-05  0.7622877E-07  0.9313226E-08  0.8500908E-14 -0.5151435E-13
  0.4746939E+01  0.6257815E-05  0.3222376E-05  0.9719957E-06  0.3842462E-05  0.3085308E+02  0.7966642E+02  0.4768994E-06  0.1915032E-05  0.1483229E-05  0.7506460E-06 -0.2058160E-14 -0.3130829E-13
  0.4948979E+01  0.6057669E-05  0.1888722E-05  0.1506537E-05  0.6329909E-05  0.2989498E+02  0.8304228E+02  0.7541506E-07  0.7272465E-06  0.8904905E-06  0.2663583E-06 -0.3589340E-14  0.6439294E-14
  0.5151020E+01 -0.1178116E-05 -0.1905486E-05 -0.1309741E-05 -0.4031055E-05  0.2898069E+02  0.8605820E+02 -0.8466125E-06 -0.4219241E-05 -0.1779107E-06 -0.6873161E-06  0.3879623E-14 -0.4929390E-13
  0.5353061E+01 -0.3939243E-05  0.7450581E-08 -0.9381189E-06 -0.1613225E-05  0.2810588E+02  0.8873406E+02 -0.3135979E-07  0.1484877E-05 -0.4780955E-06 -0.1508743E-05 -0.2903595E-14  0.7616130E-13
  0.5555102E+01 -0.3042879E-05 -0.5906448E-05  0.6124947E-06 -0.8554780E-05  0.2726940E+02  0.9108614E+02 -0.1785072E-06 -0.1239241E-05 -0.6491476E-06 -0.1227483E-05  0.5595981E-15 -0.3996803E-14
  0.5757143E+01 -0.9819329E-06 -0.3371388E-05  0.1545978E-05 -0.3721972E-05  0.2648187E+02  0.9310426E+02  0.3356690E-06  0.9161886E-06 -0.3429485E-06 -0.1564622E-06 -0.4705362E-14  0.3508305E-13
  0.5959183E+01  0.8158003E-07  0.3943220E-05  0.8068531E-06  0.2625457E-05  0.2574218E+02  0.9479430E+02 -0.3614058E-06  0.2092100E-05  0.8751881E-08  0.3278255E-06 -0.3875135E-14 -0.2198242E-13
  0.6161224E+01  0.1284547E-05  0.1430511E-05 -0.2676284E-05 -0.3419875E-05  0.2504724E+02  0.9619250E+02  0.1731145E-06 -0.4501664E-05  0.2642254E-06  0.1359731E-05 -0.7928589E-14  0.8348877E-13
  0.6363265E+01  0.5289423E-06  0.2056360E-05 -0.1604829E-06 -0.3033259E-05  0.2439051E+02  0.9732979E+02  0.3803511E-06  0.1273118E-05  0.1416757E-06  0.6780028E-06  0.5443583E-14 -0.4396483E-13
  0.6565306E+01  0.1696588E-05  0.5707145E-05  0.5542990E-06 -0.4347647E-05  0.2378021E+02  0.9819759E+02  0.6032036E-06 -0.3310968E-05  0.4630153E-06  0.1717359E-05  0.1663989E-13 -0.3352874E-13
  0.6767346E+01  0.3250586E-06  0.5405396E-05  0.1462230E-05  0.1091039E-04  0.2321497E+02  0.9880437E+02 -0.6025006E-06 -0.1995708E-05  0.4068049E-06  0.1844019E-06  0.5906012E-15 -0.3730349E-13
  0.6969387E+01  0.1666105E-05  0.6183982E-05 -0.5591768E-06  0.6906281E-05  0.2269385E+02  0.9916050E+02 -0.2728401E-06  0.1155422E-05  0.4174616E-06  0.9946525E-06 -0.5671078E-14  0.3219647E-13
  0.7171429E+01  0.1880455E-06  0.3552064E-05  0.8851970E-07  0.3507594E-05  0.2220720E+02  0.9933041E+02  0.8126345E-07 -0.2280576E-06  0.6701070E-07  0.4861504E-06  0.6068629E-14  0.1731948E-13
  0.7373469E+01 -0.8629311E-06 -0.4954636E-06  0.6800224E-06 -0.7684517E-05  0.2175562E+02  0.9930607E+02 -0.6373464E-06  0.8569332E-06 -0.1258020E-06 -0.8288771E-06 -0.3252312E-14 -0.4596323E-13
  0.7575510E+01  0.8335237E-07 -0.6018206E-05  0.5616450E-06 -0.6847724E-05  0.2134257E+02  0.9909374E+02 -0.2994169E-06 -0.1976499E-05  0.6933737E-07 -0.4526228E-06  0.8793254E-15 -0.1532108E-13
  0.7777551E+01 -0.7658888E-06 -0.4297122E-05  0.8916509E-07 -0.4227157E-05  0.2096633E+02  0.9870158E+02  0.1157036E-06 -0.7956987E-06 -0.1293246E-06 -0.9406358E-06 -0.3882722E-14 -0.1176836E-13
  0.7979591E+01 -0.1774039E-07 -0.5364418E-06 -0.1266351E-05  0.2429530E-05  0.2062252E+02  0.9813350E+02  0.3575213E-06  0.2169400E-05  0.2801114E-07  0.7841736E-06  0.2893963E-14  0.1421085E-13
  0.8181633E+01  0.7103048E-07 -0.5425885E-05  0.4334965E-06  0.1553353E-04  0.2030884E+02  0.9743172E+02 -0.6824162E-07 -0.3139838E-05  0.1293119E-06 -0.7078052E-07 -0.6187783E-14 -0.7993606E-14
  0.8383674E+01 -0.2232862E-06 -0.3386289E-05  0.6440306E-07  0.8608913E-06  0.2002014E+02  0.9662885E+02  0.9089747E-07 -0.2253102E-05 -0.1333052E-06  0.2365559E-06  0.2913390E-14 -0.7838175E-13
  0.8585714E+01  0.7376199E-08 -0.3814697E-05  0.1716593E-06 -0.6567105E-05  0.1975819E+02  0.9569953E+02 -0.5985026E-07 -0.1586624E-05 -0.1006634E-06 -0.1139939E-05 -0.3103452E-14  0.6306067E-13
  0.8787755E+01  0.5928497E-06 -0.2335757E-05 -0.6607826E-07 -0.7159542E-07  0.1952262E+02  0.9466420E+02  0.6300486E-06  0.3833557E-05  0.1085231E-06 -0.2272427E-06 -0.1465515E-14  0.2398082E-13
  0.8989796E+01 -0.5954798E-06  0.3810972E-05 -0.5745143E-06 -0.1313561E-04  0.1930971E+02  0.9351428E+02 -0.1590225E-06  0.8303905E-06 -0.1002826E-06  0.9294599E-06 -0.1042324E-13  0.1554312E-13
  0.9191836E+01 -0.1762979E-06 -0.7469207E-05  0.5136196E-06 -0.8114788E-05  0.1911703E+02  0.9226189E+02  0.2009695E-06 -0.2586632E-05 -0.8267763E-07 -0.1648441E-05 -0.3285314E-14 -0.5995204E-14
  0.9393878E+01 -0.5805722E-06  0.3753230E-05 -0.5021018E-06 -0.3586756E-06  0.1894463E+02  0.9092985E+02  0.3791912E-06 -0.1445878E-05 -0.9358952E-07 -0.2235174E-06 -0.6476582E-14  0.2575717E-13
  0.9595919E+01 -0.3451241E-06  0.1620501E-06  0.7619955E-07 -0.3493042E-06  0.1879184E+02  0.8954617E+02  0.5729099E-06 -0.1505017E-05 -0.3649232E-07 -0.3725290E-08 -0.1666043E-14 -0.1731948E-13
  0.9797959E+01  0.1520843E-06  0.3850088E-05  0.3604993E-06  0.9556417E-05  0.1865440E+02  0.8808115E+02 -0.4324898E-08 -0.8904608E-06 -0.4106277E-07  0.5215406E-06  0.1586363E-14  0.1376677E-13
  0.1000000E+02  0.1180917E-06  0.1732260E-06 -0.6310059E-06  0.8125498E-05  0.1853266E+02  0.8655254E+02  0.1392327E-07  0.1777371E-05  0.5438924E-07 -0.6556511E-06  0.1953993E-14 -0.9103829E-14
Zone t="Motion of body    1 in DoF   4",I=    50,F=POINT
  0.1000000E+00 -0.5534275E-08 -0.1548482E-20 -0.5309301E+00  0.2902730E-12 -0.6974005E-06 -0.4404571E-19  0.1527169E+00 -0.3993820E-13  0.4729372E-09  0.0000000E+00  0.1033226E-09  0.7607351E-20