VARIABLES="w (rad/s)"
"abs(F   1   1)" "angle(F   1   1)"
"abs(F   1   2)" "angle(F   1   2)"
"abs(F   1   3)" "angle(F   1   3)"
"abs(F   1   4)" "angle(F   1   4)"
"abs(F   1   5)" "angle(F   1   5)"
"abs(F   1   6)" "angle(F   1   6)"
Zone t="Diffraction force - beta =   0.000 deg",I=    25,F=POINT
  0.6000000E+00  0.9227504E+02 -0.1570789E+01  0.1514352E-05 -0.6235739E+00  0.6361791E+01 -0.3119811E+01  0.1005500E-05 -0.1501494E+00  0.6256913E+02  0.1570804E+01  0.4242630E-12  0.1654633E+01
  0.2320833E+01  0.1142999E+04 -0.1555407E+01  0.7698785E-04 -0.3014181E+01  0.5276974E+02 -0.2909377E+01  0.1201209E-04 -0.2337899E+00  0.7359471E+03  0.1586143E+01  0.4442188E-11  0.1469854E+01
  0.4041667E+01  0.2301778E+04 -0.1382527E+01  0.9578465E-04 -0.2379057E+01  0.2617048E+02 -0.1056340E+01  0.2889311E-03 -0.1554617E+00  0.1316788E+04  0.1757894E+01  0.8415563E-11  0.4062222E+00
  0.5762500E+01  0.1894448E+04 -0.1090322E+01  0.1552725E-02  0.2603505E+00  0.4075819E+02  0.3091611E+01  0.5152991E-03  0.2911911E+01  0.9141559E+03  0.2042628E+01  0.1443476E-10 -0.1320087E+01
  0.7483334E+01  0.7825382E+03 -0.1279521E+01  0.5399033E-03 -0.1206381E+01  0.6505022E+01  0.2377026E+01  0.1299307E-03 -0.1770762E+01  0.3250311E+03  0.1847187E+01  0.2570604E-11  0.1206202E+01
  0.9204167E+01  0.3848039E+03 -0.2245226E+01  0.8364845E-04 -0.1416224E+01  0.3954842E+01  0.1270421E+01  0.5770112E-04 -0.1368767E+01  0.1357483E+03  0.9154333E+00  0.7309202E-11 -0.2593504E+01
  0.1092500E+02  0.7223195E+03  0.1139349E+01  0.5558511E-04  0.1678066E+01  0.4306415E+01  0.4519258E+00  0.1636500E-04 -0.2124636E+01  0.2633507E+03 -0.1989379E+01  0.2480079E-11  0.2616405E+01
  0.1264583E+02  0.4804585E+03  0.2803035E+01  0.1610052E-04 -0.9490576E-01  0.4548248E+01 -0.1775925E+00  0.5028583E-04  0.3652143E-01  0.1572842E+03 -0.4139014E+00  0.9697819E-12 -0.1512148E+01
  0.1436667E+02  0.6331860E+02  0.1991987E+01  0.9024184E-04  0.1422309E+00  0.5129210E+01 -0.2157889E+00  0.4891081E-04 -0.3102767E+01  0.1945328E+02 -0.1183494E+01  0.2027974E-11  0.4887207E+00
  0.1608750E+02  0.5121964E+02 -0.1689578E+01  0.2002362E-04  0.1814454E+01  0.1688953E+01 -0.3026000E+01  0.4670318E-04 -0.1588239E+00  0.2845589E+02  0.1465760E+01  0.3606335E-12  0.9137493E+00
  0.1780833E+02  0.2284221E+01 -0.1742168E+01  0.2547523E-04  0.3055281E+01  0.4433847E+01 -0.3125462E+01  0.9098835E-04  0.3141417E+01  0.1837419E+01  0.1508243E+01  0.9238363E-12 -0.1682534E-01
  0.1952917E+02  0.3628743E+02  0.1573762E+01  0.3336134E-04  0.3128730E+01  0.1675994E+01  0.3133013E+01  0.5865529E-04  0.3139467E+01  0.1686281E+02 -0.1566825E+01  0.1003728E-11 -0.1659400E+01
  0.2125000E+02  0.5455930E+02 -0.1577599E+01  0.1754390E-05 -0.1252722E+00  0.1013596E+01  0.5061365E-02  0.3962073E-05 -0.3096927E+01  0.1835301E+02  0.1563540E+01  0.6744642E-13  0.7415175E+00
  0.2297083E+02  0.2358024E+02 -0.1573835E+01  0.6668802E-05  0.8029711E-01  0.7156661E+00  0.6607204E-02  0.1302874E-04 -0.3141458E+01  0.8993166E+01  0.1567719E+01  0.2415345E-12 -0.2453122E+01
  0.2469167E+02  0.3176911E+02  0.1570784E+01  0.2223588E-06  0.3014945E+01  0.5704819E-01 -0.7809563E-05  0.7893349E-06  0.2892124E-01  0.1120391E+02 -0.1570808E+01  0.2741990E-12  0.1600763E+01
  0.2641250E+02  0.1979441E+01 -0.1569124E+01  0.2450695E-05 -0.5419264E-02  0.1613858E+00  0.3137731E+01  0.2978289E-05 -0.3136717E+01  0.8640121E+00  0.1572546E+01  0.1069501E-12 -0.1433338E+01
  0.2813334E+02  0.4212154E+01 -0.1570742E+01  0.7061910E-06  0.3116667E+01  0.9150550E-01  0.3141567E+01  0.1188429E-05 -0.2182375E-02  0.1406092E+01  0.1570849E+01  0.3878002E-13 -0.2427669E+01
  0.2985417E+02  0.8065341E+00  0.1570757E+01  0.4290921E-06  0.8180789E-02  0.6971965E-01 -0.5022106E-04  0.3110723E-07  0.3068727E+01  0.3288015E+00 -0.1570834E+01  0.2120171E-13 -0.1808675E+01
  0.3157500E+02  0.4276288E-01 -0.1570773E+01  0.3710885E-07 -0.5925424E-01  0.8527305E-03  0.3293561E-05  0.9931568E-08  0.2815216E+00  0.5220500E-01  0.1570803E+01  0.2561082E-13 -0.1553185E+01
  0.3329583E+02  0.3296331E+00  0.1570796E+01  0.3236836E-06  0.3138345E+01  0.9470158E-02 -0.3141592E+01  0.9480974E-07 -0.2790365E-02  0.1243935E+00 -0.1570795E+01  0.6767328E-14  0.9591731E+00
  0.3501667E+02  0.2487866E+00 -0.1570796E+01  0.2777936E-08  0.3117684E+01  0.1192300E-02  0.1147643E-05  0.2068114E-07  0.7577024E-02  0.8762907E-01  0.1570796E+01  0.3003250E-15 -0.1900185E+01
  0.3673750E+02  0.8229953E-01  0.1570796E+01  0.2317794E-07  0.8483564E-02  0.1242439E-02  0.4386652E-06  0.1128025E-07  0.6508488E-02  0.2910854E-01 -0.1570796E+01  0.1623435E-14 -0.1584688E+01
  0.3845834E+02  0.1138238E-01 -0.1570796E+01  0.1359739E-07 -0.3135886E+01  0.6502670E-03  0.3141592E+01  0.4724880E-08  0.3136792E+01  0.4377897E-02  0.1570797E+01  0.1579365E-15 -0.2991762E+00
  0.4017917E+02  0.2203463E-02 -0.1570798E+01  0.1399314E-08 -0.2044803E-03  0.1339533E-03  0.2799135E-06  0.3729945E-09 -0.3132208E+01  0.6003673E-03  0.1570795E+01  0.3949198E-16 -0.1349361E+01
  0.4190000E+02  0.1920980E-02  0.1570796E+01  0.5194490E-09 -0.3128843E+01  0.2395065E-05  0.2796110E-05  0.2386929E-09  0.1588564E-02  0.6444206E-03 -0.1570796E+01  0.2189356E-16  0.1484025E+01
