VARIABLES="w (rad/s)"
"A   1   1" "B   1   1"
"A   1   2" "B   1   2"
"A   1   3" "B   1   3"
"A   1   4" "B   1   4"
"A   1   5" "B   1   5"
"A   1   6" "B   1   6"
Zone t="Motion of body    1 in DoF   1",I=    25,F=POINT
  0.6000000E+00  0.2609082E+03  0.1128168E-02  0.8754432E-06 -0.4090062E-11  0.1113241E-04  0.5206313E-06 -0.2188608E-06  0.6469492E-11 -0.1774571E+03 -0.7614316E-03  0.2960595E-13 -0.3740497E-17
  0.2320833E+01  0.2743386E+03  0.9687037E+01 -0.1739985E-05 -0.5802576E-07  0.2770493E-04  0.5776249E-04 -0.1396483E-06 -0.7185008E-07 -0.1848146E+03 -0.6219945E+01  0.2406406E-11  0.1348921E-13
  0.4041667E+01  0.2854947E+03  0.1953581E+03  0.5180073E-06  0.1185865E-05  0.2383940E-04  0.4915148E-04 -0.1264602E-05  0.5163602E-06 -0.1877814E+03 -0.1110483E+03 -0.9915367E-12 -0.8135714E-12
  0.5762500E+01  0.2247139E+03  0.4338454E+03  0.3878827E-08 -0.4785557E-05  0.1009271E-04  0.6087124E-05  0.4809746E-06 -0.5762558E-06 -0.1540369E+03 -0.2054366E+03 -0.1676943E-12 -0.2426281E-11
  0.7483334E+01  0.1959751E+03  0.2847050E+03  0.4301092E-06  0.2056313E-05  0.3094397E-05 -0.7511117E-06  0.1413785E-06 -0.1501212E-06 -0.1439792E+03 -0.1116517E+03  0.3798001E-12  0.3771761E-11
  0.9204167E+01  0.2033951E+03  0.1139123E+03 -0.5553026E-06 -0.4461544E-06 -0.7987939E-05  0.1241717E-05  0.1057180E-05  0.2937013E-06 -0.1490813E+03 -0.3917871E+02  0.2099784E-12 -0.3478329E-12
  0.1092500E+02  0.2674977E+03  0.2177199E+03  0.5373965E-06  0.1326058E-05  0.5690402E-05  0.2118293E-05  0.1876796E-05 -0.7715062E-06 -0.1720806E+03 -0.7673736E+02  0.1675385E-11  0.1388889E-12
  0.1264583E+02  0.1878795E+03  0.2600343E+03  0.1014556E-05  0.7939525E-06  0.5745614E-05  0.3838330E-05 -0.3228668E-06 -0.2959059E-06 -0.1458160E+03 -0.8211024E+02 -0.1798013E-13 -0.1810163E-11
  0.1436667E+02  0.1967396E+03  0.7891680E+02 -0.1130552E-06  0.8442439E-06  0.2285997E-05  0.9497162E-06  0.1106696E-05 -0.6009213E-07 -0.1493752E+03 -0.2237102E+02 -0.5064470E-12  0.8201773E-13
  0.1608750E+02  0.2063880E+03  0.1493347E+01 -0.7938024E-06 -0.8375537E-08 -0.1437551E-05  0.5221227E-07 -0.1759889E-07 -0.5540642E-08 -0.1528597E+03 -0.7231860E+00  0.8904144E-12  0.5145190E-14
  0.1780833E+02  0.2084950E+03  0.2415934E+02 -0.2211536E-05  0.3463219E-07  0.2028288E-05  0.1638255E-06 -0.1218311E-05 -0.1132321E-07 -0.1534996E+03 -0.7121232E+01 -0.7022304E-13 -0.8117812E-13
  0.1952917E+02  0.2112306E+03 -0.5349299E+00  0.6714583E-07 -0.6584969E-08 -0.1355125E-05  0.8891220E-08 -0.5432707E-06 -0.1133867E-07 -0.1545157E+03  0.3345135E+00  0.4889964E-12 -0.5538972E-14
  0.2125000E+02  0.2122492E+03 -0.3611938E+01 -0.4487879E-06 -0.6679505E-07 -0.1099530E-05  0.3754394E-08 -0.7348902E-06  0.2182958E-08 -0.1548470E+03  0.1295856E+01 -0.1508691E-11  0.7713014E-15
  0.2297083E+02  0.2138328E+03  0.1018726E+01  0.8342273E-06  0.1311520E-07  0.4286605E-05 -0.1861408E-06  0.8822310E-07 -0.4628760E-09 -0.1554203E+03 -0.3935568E+00  0.1682722E-11 -0.1227946E-13
  0.2469167E+02  0.2144600E+03 -0.1448503E-01 -0.1689770E-06 -0.5645989E-10 -0.2998135E-05  0.1256922E-08  0.3138145E-07  0.1543776E-10 -0.1556449E+03  0.5123112E-02  0.4420088E-12  0.6896712E-16
  0.2641250E+02  0.2149875E+03 -0.2271211E-01 -0.2021988E-05 -0.7855068E-09  0.2653859E-05 -0.1813169E-07 -0.7830691E-06  0.7398970E-10 -0.1558204E+03  0.1059818E-01  0.6972936E-12  0.2287124E-15
  0.2813334E+02  0.2152390E+03  0.4147930E-01  0.4735178E-06  0.2363320E-09  0.1144070E-05  0.8026291E-10  0.1271189E-07  0.4372569E-10 -0.1559138E+03 -0.1353584E-01  0.4849200E-12 -0.8074003E-16
  0.2985417E+02  0.2155716E+03 -0.8901048E-01  0.1201909E-05 -0.2296274E-09 -0.3845310E-05 -0.7463768E-08  0.7716575E-06  0.5160139E-10 -0.1560279E+03  0.3295860E-01  0.2970297E-12  0.6994798E-15
  0.3157500E+02  0.2166291E+03  0.0000000E+00 -0.1378033E-06  0.0000000E+00 -0.1604559E-05  0.0000000E+00 -0.1402573E-05  0.0000000E+00 -0.1563925E+03  0.0000000E+00  0.2275537E-11  0.0000000E+00
  0.3329583E+02  0.2167180E+03  0.0000000E+00 -0.5997014E-07  0.0000000E+00 -0.1371258E-05  0.0000000E+00  0.3490799E-06  0.0000000E+00 -0.1564247E+03  0.0000000E+00  0.9150717E-12  0.0000000E+00
  0.3501667E+02  0.2167937E+03  0.0000000E+00  0.4136295E-06  0.0000000E+00 -0.2934557E-05  0.0000000E+00 -0.7319370E-06  0.0000000E+00 -0.1564523E+03  0.0000000E+00  0.4675175E-12  0.0000000E+00
  0.3673750E+02  0.2168594E+03  0.0000000E+00  0.1680855E-05  0.0000000E+00  0.3053445E-05  0.0000000E+00  0.2174079E-06  0.0000000E+00 -0.1564760E+03  0.0000000E+00 -0.6251035E-12  0.0000000E+00
  0.3845834E+02  0.2169163E+03  0.0000000E+00 -0.6199399E-08  0.0000000E+00  0.5641453E-06  0.0000000E+00  0.2867222E-06  0.0000000E+00 -0.1564968E+03  0.0000000E+00 -0.1980590E-11  0.0000000E+00
  0.4017917E+02  0.2169659E+03  0.0000000E+00  0.1388529E-05  0.0000000E+00  0.1964116E-05  0.0000000E+00 -0.1019145E-05  0.0000000E+00 -0.1565149E+03  0.0000000E+00  0.1358159E-12  0.0000000E+00
  0.4190000E+02  0.2170097E+03  0.0000000E+00  0.5476799E-06  0.0000000E+00 -0.2549201E-05  0.0000000E+00  0.2347199E-06  0.0000000E+00 -0.1565308E+03  0.0000000E+00 -0.2713290E-12  0.0000000E+00
Zone t="Motion of body    1 in DoF   2",I=    25,F=POINT
  0.6000000E+00  0.1555309E-05  0.1850342E-10  0.2609078E+03  0.1129949E-02  0.2070252E-06  0.6679102E-12  0.1774572E+03  0.7636590E-03  0.1269703E-05  0.1596945E-11  0.2425000E-08 -0.2499143E-12
  0.2320833E+01  0.4879663E-06  0.1510489E-07  0.2743386E+03  0.9687046E+01  0.3673792E-06  0.3373134E-07  0.1848144E+03  0.6219958E+01  0.8202328E-06  0.1624721E-07  0.1538259E-09 -0.1723578E-08
  0.4041667E+01  0.1722697E-05  0.3226683E-05  0.2854943E+03  0.1953575E+03  0.3587800E-06 -0.1052395E-06  0.1877811E+03  0.1110482E+03 -0.7926803E-07  0.2915971E-05 -0.2087734E-08 -0.3565186E-07
  0.5762500E+01  0.2098446E-05  0.2739704E-05  0.2247135E+03  0.4338449E+03  0.1646885E-06 -0.4237518E-07  0.1540367E+03  0.2054362E+03  0.1035647E-05 -0.4679736E-05  0.9251791E-08 -0.8327132E-07
  0.7483334E+01 -0.1125054E-05  0.1653370E-05  0.1959752E+03  0.2847050E+03 -0.2063429E-06 -0.1440640E-08  0.1439790E+03  0.1116518E+03 -0.9209514E-06  0.8598727E-06  0.1571883E-07 -0.6048462E-07
  0.9204167E+01  0.2525575E-06 -0.1499502E-06  0.2033949E+03  0.1139127E+03  0.5383036E-07 -0.6167511E-10  0.1490814E+03  0.3917873E+02  0.9228061E-07 -0.9295400E-07  0.1697499E-07 -0.3460221E-07
  0.1092500E+02  0.7992751E-06 -0.7118288E-06  0.2674969E+03  0.2177188E+03  0.1367360E-06  0.8425559E-08  0.1720806E+03  0.7673689E+02  0.5060257E-06 -0.6854243E-06  0.2441992E-07  0.8948410E-07
  0.1264583E+02 -0.3546821E-06  0.3915484E-06  0.1878795E+03  0.2600345E+03  0.7364662E-07 -0.4394678E-08  0.1458160E+03  0.8211034E+02 -0.1626117E-06 -0.2049273E-07  0.7975424E-08  0.1452952E-07
  0.1436667E+02  0.4605184E-06  0.2844026E-06  0.1967392E+03  0.7891673E+02 -0.2463359E-07  0.3838068E-09  0.1493752E+03  0.2237103E+02 -0.3733933E-06  0.4553294E-07  0.8935671E-08  0.1116544E-07
  0.1608750E+02 -0.1346778E-05 -0.3445257E-07  0.2063880E+03  0.1493361E+01  0.3450308E-07 -0.1546141E-09  0.1528596E+03  0.7231923E+00 -0.1732101E-05 -0.1253466E-07  0.8388160E-08 -0.1418318E-08
  0.1780833E+02 -0.1999838E-06 -0.4070353E-07  0.2084949E+03  0.2415931E+02 -0.4978676E-07 -0.3083187E-09  0.1534994E+03  0.7121228E+01  0.1179821E-05 -0.1844455E-08  0.9462292E-08 -0.8191403E-09
  0.1952917E+02 -0.2962046E-05  0.1583385E-07  0.2112307E+03 -0.5349281E+00 -0.2369179E-06 -0.2632987E-09  0.1545157E+03 -0.3345131E+00 -0.1286453E-05  0.4690719E-08  0.9043407E-08  0.1117334E-08
  0.2125000E+02 -0.1047639E-05 -0.5647223E-08  0.2122491E+03 -0.3611935E+01  0.6328611E-07 -0.7594281E-10  0.1548471E+03 -0.1295854E+01  0.5890341E-07 -0.5624685E-08  0.9090355E-08 -0.1085578E-08
  0.2297083E+02 -0.5176620E-06 -0.4372652E-08  0.2138327E+03  0.1018722E+01  0.4524678E-07  0.1459739E-09  0.1554203E+03  0.3935559E+00  0.1261071E-05  0.4338773E-08  0.9090644E-08 -0.3104886E-09
  0.2469167E+02 -0.7640176E-06  0.3577361E-10  0.2144601E+03 -0.1448509E-01 -0.5401230E-07 -0.1671552E-11  0.1556452E+03 -0.5123139E-02  0.4405473E-06  0.8659740E-13  0.9045321E-08 -0.8713475E-12
  0.2641250E+02  0.2161903E-05 -0.6326166E-09  0.2149874E+03 -0.2271233E-01  0.1332854E-06  0.4973799E-11  0.1558204E+03 -0.1059830E-01  0.1376577E-06 -0.5214051E-10  0.9033387E-08  0.1312789E-10
  0.2813334E+02  0.3315684E-06  0.4495671E-10  0.2152390E+03  0.4147918E-01 -0.1406253E-06 -0.6394885E-13  0.1559137E+03  0.1353582E-01 -0.1009536E-05  0.1251411E-09  0.9008434E-08  0.7414389E-11
  0.2985417E+02 -0.1025216E-05  0.1229976E-08  0.2155717E+03 -0.8901049E-01  0.7836367E-07  0.2354739E-10  0.1560277E+03 -0.3295859E-01 -0.1583246E-05  0.1941469E-10  0.8989442E-08  0.2661549E-10
  0.3157500E+02 -0.2876880E-05  0.0000000E+00  0.2166289E+03  0.0000000E+00 -0.2034014E-06  0.0000000E+00  0.1563923E+03  0.0000000E+00 -0.1210970E-05  0.0000000E+00  0.9023860E-08  0.0000000E+00
  0.3329583E+02  0.1246842E-05  0.0000000E+00  0.2167177E+03  0.0000000E+00 -0.9017898E-07  0.0000000E+00  0.1564246E+03  0.0000000E+00  0.3383390E-06  0.0000000E+00  0.9008586E-08  0.0000000E+00
  0.3501667E+02 -0.1102161E-05  0.0000000E+00  0.2167935E+03  0.0000000E+00 -0.4446943E-07  0.0000000E+00  0.1564521E+03  0.0000000E+00  0.1492811E-05  0.0000000E+00  0.8992121E-08  0.0000000E+00
  0.3673750E+02  0.6668257E-06  0.0000000E+00  0.2168591E+03  0.0000000E+00  0.1523072E-06  0.0000000E+00  0.1564760E+03  0.0000000E+00  0.6603359E-06  0.0000000E+00  0.8976141E-08  0.0000000E+00
  0.3845834E+02  0.1399514E-05  0.0000000E+00  0.2169159E+03  0.0000000E+00 -0.2557252E-07  0.0000000E+00  0.1564967E+03  0.0000000E+00  0.4448069E-06  0.0000000E+00  0.8961910E-08  0.0000000E+00
  0.4017917E+02 -0.2670248E-06  0.0000000E+00  0.2169657E+03  0.0000000E+00  0.8325983E-07  0.0000000E+00  0.1565147E+03  0.0000000E+00  0.6601447E-06  0.0000000E+00  0.8955486E-08  0.0000000E+00
  0.4190000E+02 -0.2190719E-06  0.0000000E+00  0.2170094E+03  0.0000000E+00  0.9691089E-07  0.0000000E+00  0.1565307E+03  0.0000000E+00 -0.9161191E-06  0.0000000E+00  0.8942932E-08  0.0000000E+00
Zone t="Motion of body    1 in DoF   3",I=    25,F=POINT
  0.6000000E+00  0.9387732E-05  0.5820766E-07  0.5867332E-06  0.3987661E-06  0.1825479E+02  0.2297051E+00  0.9220093E-05  0.1716398E-06 -0.5041559E-05 -0.1965091E-06 -0.5329070E-13 -0.2553513E-14
  0.2320833E+01 -0.1671927E-04 -0.7435679E-05 -0.3436631E-05  0.1174514E-04  0.1660156E+02  0.4084252E+01  0.1013252E-04  0.2762768E-05  0.1456194E-04 -0.2145767E-05 -0.6735487E-13  0.7105427E-14
  0.4041667E+01 -0.1884736E-04  0.2682954E-04  0.2840376E-04  0.8131843E-05  0.1610461E+02  0.2341074E+01  0.7068680E-05  0.8768402E-06  0.8317613E-05 -0.1300871E-04 -0.7032175E-13  0.1776357E-14
  0.5762500E+01  0.5192457E-05 -0.5373033E-05 -0.1913555E-06  0.1974113E-06  0.1584305E+02 -0.1102929E+00  0.9441066E-05  0.2021261E-07 -0.1572218E-05  0.3260095E-05 -0.4932184E-14 -0.1110223E-15
  0.7483334E+01 -0.1752297E-05 -0.7249764E-06  0.6883738E-05  0.1205597E-05  0.1612159E+02 -0.4132759E-02  0.4420567E-06 -0.4153699E-06 -0.2039036E-05  0.2243323E-06 -0.1519200E-13  0.1387779E-15
  0.9204167E+01  0.4818019E-05 -0.1828303E-05  0.3365004E-05  0.7749113E-06  0.1620284E+02 -0.7626530E-02  0.4674741E-05 -0.2590241E-07 -0.9325199E-06  0.6007031E-06  0.3087918E-13  0.2942091E-14
  0.1092500E+02 -0.1614918E-05  0.7806811E-06  0.2459203E-05 -0.3248897E-06  0.1624389E+02 -0.4403030E-02  0.8328965E-05 -0.8971983E-07  0.2378730E-05 -0.2379529E-06  0.3642141E-13 -0.8049117E-15
  0.1264583E+02  0.6768419E-05  0.7841736E-06  0.5960073E-05  0.5664624E-06  0.1626644E+02  0.1076647E-01  0.4435294E-05  0.5561378E-07 -0.6900393E-05 -0.2693851E-06  0.7192052E-13 -0.4163336E-15
  0.1436667E+02  0.4464124E-05  0.5692709E-07  0.3402028E-06  0.6191840E-07  0.1628081E+02 -0.1811927E-01 -0.1462457E-05 -0.5615584E-07 -0.2339931E-05  0.1164153E-09  0.4747941E-13  0.1942890E-14
  0.1608750E+02  0.2104456E-05 -0.6111804E-07  0.8571584E-05  0.2195156E-07  0.1629366E+02  0.1324689E-01 -0.8354839E-06 -0.1309309E-06 -0.5661283E-05  0.7171184E-07 -0.4240069E-13 -0.1165734E-14
  0.1780833E+02  0.3614770E-05  0.2180459E-06 -0.5007962E-05  0.7792551E-08  0.1629962E+02  0.9009534E-02 -0.1074641E-04  0.1386798E-06 -0.5408767E-05 -0.2328306E-08 -0.7660696E-13  0.6800116E-15
  0.1952917E+02  0.4981000E-05 -0.9851647E-08 -0.1305528E-05  0.3347304E-07  0.1630603E+02 -0.2195181E-02 -0.7518043E-05 -0.2032812E-07 -0.4712416E-05 -0.6664777E-08  0.5821386E-14  0.1457168E-15
  0.2125000E+02  0.2804924E-05 -0.7265044E-07 -0.1237673E-05  0.1654962E-07  0.1631002E+02  0.1978565E-02 -0.5909976E-05  0.1481021E-07 -0.1593197E-05  0.2283195E-07  0.5349969E-13  0.5551115E-16
  0.2297083E+02  0.2740106E-05  0.7275958E-08 -0.1817007E-05  0.5761376E-07  0.1631405E+02  0.1720632E-02  0.3598984E-05 -0.9222276E-08 -0.1183227E-05 -0.8469215E-08  0.3959346E-13  0.3469447E-16
  0.2469167E+02 -0.2066348E-05 -0.1585420E-08 -0.9619621E-06  0.6053824E-10  0.1631649E+02 -0.2520140E-05 -0.3454373E-05 -0.1507416E-10 -0.1969790E-05  0.5835545E-09  0.1841704E-13  0.2710505E-19
  0.2641250E+02  0.4820275E-05 -0.9094947E-09  0.2562464E-05  0.6914888E-08  0.1631852E+02 -0.7478501E-03 -0.4660051E-05 -0.9389169E-08 -0.2906608E-05  0.3688911E-08 -0.6886850E-13  0.3469447E-16
  0.2813334E+02  0.1016951E-05  0.7011636E-09 -0.1029663E-05 -0.1392948E-09  0.1632013E+02 -0.1488107E-04 -0.1135277E-04  0.1445599E-10 -0.7288149E-06 -0.1887202E-09  0.5657400E-13  0.2168404E-18
  0.2985417E+02  0.4584025E-05 -0.1862645E-08  0.3939147E-05  0.1588774E-09  0.1632152E+02 -0.1066276E-03 -0.4803643E-05  0.1622880E-09 -0.1181944E-05  0.6539267E-09  0.3046458E-13  0.1496199E-16
  0.3157500E+02 -0.2023632E-05  0.0000000E+00 -0.5684858E-05  0.0000000E+00  0.1632314E+02  0.0000000E+00 -0.3164756E-05  0.0000000E+00 -0.1208139E-06  0.0000000E+00  0.7201067E-14  0.0000000E+00
  0.3329583E+02  0.3580307E-06  0.0000000E+00 -0.8221280E-05  0.0000000E+00  0.1632406E+02  0.0000000E+00  0.8294676E-05  0.0000000E+00 -0.1632620E-05  0.0000000E+00 -0.6146004E-13  0.0000000E+00
  0.3501667E+02  0.1056713E-04  0.0000000E+00  0.1634603E-04  0.0000000E+00  0.1632486E+02  0.0000000E+00  0.9579013E-05  0.0000000E+00 -0.5746557E-05  0.0000000E+00  0.4545309E-13  0.0000000E+00
  0.3673750E+02  0.3504485E-05  0.0000000E+00  0.9312845E-06  0.0000000E+00  0.1632554E+02  0.0000000E+00  0.3757587E-05  0.0000000E+00  0.1765222E-05  0.0000000E+00  0.5570230E-13  0.0000000E+00
  0.3845834E+02  0.2752533E-05  0.0000000E+00 -0.1491033E-04  0.0000000E+00  0.1632614E+02  0.0000000E+00  0.9604419E-05  0.0000000E+00 -0.3298080E-05  0.0000000E+00  0.2956104E-13  0.0000000E+00
  0.4017917E+02  0.2041256E-05  0.0000000E+00  0.1585089E-05  0.0000000E+00  0.1632665E+02  0.0000000E+00 -0.3327426E-05  0.0000000E+00 -0.1946314E-05  0.0000000E+00 -0.7922592E-13  0.0000000E+00
  0.4190000E+02 -0.5803984E-05  0.0000000E+00  0.3980281E-05  0.0000000E+00  0.1632711E+02  0.0000000E+00  0.4678751E-05  0.0000000E+00 -0.3641716E-06  0.0000000E+00 -0.2170632E-13  0.0000000E+00
Zone t="Motion of body    1 in DoF   4",I=    25,F=POINT
  0.6000000E+00 -0.2250696E-06  0.1982414E-11  0.1771540E+03  0.7585009E-03  0.1542503E-07 -0.3694822E-11  0.1354814E+03  0.5125467E-03  0.2297262E-06 -0.1051603E-11  0.4565158E-08 -0.1686394E-12
  0.2320833E+01  0.1011246E-05 -0.2625166E-07  0.1844891E+03  0.6181920E+01  0.9309883E-07  0.4569301E-08  0.1395583E+03  0.3969327E+01 -0.7158979E-06 -0.4511821E-07  0.3295273E-08 -0.1100377E-08
  0.4041667E+01  0.1273819E-05 -0.9090872E-06  0.1874532E+03  0.1104781E+03  0.9850896E-08 -0.4982576E-07  0.1395160E+03  0.6278368E+02  0.4663910E-06 -0.2731686E-06  0.2622849E-08 -0.2016716E-07
  0.5762500E+01 -0.4486510E-06 -0.8010829E-08  0.1538744E+03  0.2047095E+03  0.4464692E-07  0.8265488E-08  0.1212862E+03  0.9674142E+02  0.3788321E-06 -0.6157570E-06  0.8871533E-08 -0.3928643E-07
  0.7483334E+01 -0.3265644E-06 -0.1803786E-05  0.1438330E+03  0.1113951E+03 -0.9956231E-08  0.1404260E-08  0.1183808E+03  0.4336957E+02  0.2747920E-06  0.5565525E-06  0.1118311E-07 -0.2363775E-07
  0.9204167E+01  0.5973955E-06  0.3348105E-06  0.1488678E+03  0.3951061E+02  0.6399944E-07  0.1412559E-10  0.1213721E+03  0.1357724E+02  0.1123557E-05  0.1185545E-06  0.1113606E-07 -0.1195575E-07
  0.1092500E+02 -0.3437156E-06 -0.2760971E-06  0.1714385E+03  0.7343309E+02 -0.5140389E-07  0.1147782E-07  0.1296185E+03  0.2578672E+02 -0.4105491E-06  0.1420049E-06  0.1329714E-07  0.3030784E-07
  0.1264583E+02 -0.3205101E-06 -0.1537305E-06  0.1458620E+03  0.8262286E+02 -0.9574060E-08 -0.4583853E-09  0.1212910E+03  0.2597990E+02  0.2356692E-07 -0.1173348E-06  0.7771784E-08  0.4637332E-08
  0.1436667E+02 -0.2593009E-07 -0.9399446E-07  0.1492185E+03  0.2462268E+02 -0.4881339E-07  0.6621121E-09  0.1226402E+03  0.6974798E+01  0.4148814E-06 -0.8167262E-08  0.8051992E-08  0.3479425E-08
  0.1608750E+02 -0.9253309E-06  0.3504965E-08  0.1525372E+03  0.4899582E+00 -0.4440245E-07  0.1448370E-09  0.1238511E+03  0.2370690E+00 -0.4112582E-06  0.1314220E-08  0.7838704E-08 -0.4660344E-09
  0.1780833E+02 -0.8802634E-06 -0.5213201E-07  0.1533361E+03  0.7699598E+01  0.2881566E-07  0.1734861E-09  0.1241091E+03  0.2269456E+01 -0.3999676E-06 -0.1221315E-07  0.8147776E-08 -0.2610835E-09
  0.1952917E+02 -0.2870484E-05  0.1480322E-07  0.1542744E+03 -0.1641433E+00  0.1402051E-07 -0.2410161E-10  0.1244595E+03 -0.1026704E+00 -0.4532343E-06  0.4054868E-08  0.8002747E-08  0.3446090E-09
  0.2125000E+02 -0.2053205E-05  0.3993108E-09  0.1546324E+03 -0.1151567E+01  0.7932677E-07  0.7270273E-10  0.1245801E+03 -0.4131405E+00  0.5960464E-06 -0.6559588E-09  0.8000555E-08 -0.3460578E-09
  0.2297083E+02 -0.3152678E-06 -0.2834106E-08  0.1552040E+03  0.3410123E+00 -0.1113330E-06  0.3205969E-10  0.1247883E+03  0.1317403E+00 -0.5669631E-06 -0.7873950E-09  0.7981710E-08 -0.1039434E-09
  0.2469167E+02 -0.1324056E-05  0.5727419E-11  0.1554252E+03 -0.4371869E-02 -0.3439890E-07 -0.5111467E-12  0.1248692E+03 -0.1546304E-02 -0.8702318E-06  0.5345585E-11  0.7969988E-08 -0.2631370E-12
  0.2641250E+02  0.1324673E-05  0.1181077E-09  0.1556102E+03 -0.8991527E-02 -0.2983053E-07  0.3954170E-11  0.1249325E+03 -0.4179689E-02  0.1150908E-06 -0.1806644E-10  0.7952375E-08  0.5118175E-11
  0.2813334E+02  0.6737300E-06 -0.1429640E-10  0.1557036E+03  0.1335113E-01 -0.3575218E-08  0.4716227E-12  0.1249682E+03  0.4356848E-02 -0.3273311E-06 -0.8578804E-11  0.7935912E-08  0.2386809E-11
  0.2985417E+02  0.3853296E-06  0.5833867E-10  0.1558212E+03 -0.2879089E-01 -0.9545893E-07 -0.2316369E-11  0.1250094E+03 -0.1066062E-01  0.6169267E-06  0.5013434E-10  0.7929136E-08  0.8608070E-11
  0.3157500E+02  0.5379991E-06  0.0000000E+00  0.1561721E+03  0.0000000E+00 -0.7828124E-07  0.0000000E+00  0.1251314E+03  0.0000000E+00  0.7154445E-06  0.0000000E+00  0.7940328E-08  0.0000000E+00
  0.3329583E+02  0.6301340E-06  0.0000000E+00  0.1562078E+03  0.0000000E+00 -0.3032072E-07  0.0000000E+00  0.1251451E+03  0.0000000E+00  0.4439580E-06  0.0000000E+00  0.7925696E-08  0.0000000E+00
  0.3501667E+02 -0.9140702E-06  0.0000000E+00  0.1562383E+03  0.0000000E+00 -0.6824674E-07  0.0000000E+00  0.1251567E+03  0.0000000E+00 -0.2842639E-06  0.0000000E+00  0.7916196E-08  0.0000000E+00
  0.3673750E+02 -0.8096010E-06  0.0000000E+00  0.1562648E+03  0.0000000E+00 -0.5425057E-07  0.0000000E+00  0.1251668E+03  0.0000000E+00 -0.5548769E-06  0.0000000E+00  0.7911116E-08  0.0000000E+00
  0.3845834E+02  0.7222300E-06  0.0000000E+00  0.1562878E+03  0.0000000E+00 -0.4610803E-07  0.0000000E+00  0.1251756E+03  0.0000000E+00 -0.1340620E-05  0.0000000E+00  0.7903317E-08  0.0000000E+00
  0.4017917E+02  0.2582723E-05  0.0000000E+00  0.1563079E+03  0.0000000E+00 -0.1372211E-07  0.0000000E+00  0.1251830E+03  0.0000000E+00  0.2165868E-06  0.0000000E+00  0.7897897E-08  0.0000000E+00
  0.4190000E+02  0.6060042E-06  0.0000000E+00  0.1563254E+03  0.0000000E+00  0.4747745E-07  0.0000000E+00  0.1251898E+03  0.0000000E+00 -0.2119592E-06  0.0000000E+00  0.7898080E-08  0.0000000E+00
Zone t="Motion of body    1 in DoF   5",I=    25,F=POINT
  0.6000000E+00 -0.1771542E+03 -0.7597551E-03 -0.7761021E-08  0.7692069E-11 -0.6953875E-05  0.1133723E-06 -0.1224689E-05  0.2126299E-11  0.1354813E+03  0.5134647E-03  0.6868580E-12 -0.7074419E-17
  0.2320833E+01 -0.1844891E+03 -0.6181927E+01  0.1051375E-05 -0.1193985E-07 -0.2229717E-04 -0.3093714E-04  0.4638890E-06  0.1688750E-07  0.1395582E+03  0.3969331E+01 -0.8205048E-12 -0.5137557E-13
  0.4041667E+01 -0.1874535E+03 -0.1104783E+03  0.1816713E-05 -0.7221242E-06 -0.2648843E-04 -0.6817281E-06 -0.1917180E-06  0.7423514E-06  0.1395163E+03  0.6278383E+02  0.8227645E-12 -0.1143530E-12
  0.5762500E+01 -0.1538745E+03 -0.2047097E+03  0.1543773E-05  0.1965534E-05 -0.1321516E-04 -0.2762303E-05 -0.4227922E-06 -0.1125038E-05  0.1212865E+03  0.9674168E+02 -0.7990138E-12 -0.1881884E-11
  0.7483334E+01 -0.1438331E+03 -0.1113950E+03  0.1573085E-06  0.5022375E-06 -0.2449233E-05  0.3544847E-07  0.2389496E-07 -0.2978049E-07  0.1183809E+03  0.4336960E+02  0.1055844E-11  0.7665257E-12
  0.9204167E+01 -0.1488678E+03 -0.3951052E+02 -0.1635148E-06 -0.4144749E-06  0.1546105E-05 -0.3791674E-06 -0.3399812E-06  0.3297464E-07  0.1213723E+03  0.1357720E+02  0.2964401E-12  0.3074693E-12
  0.1092500E+02 -0.1714385E+03 -0.7343346E+02  0.4269166E-06 -0.6300252E-07 -0.9067544E-05 -0.6102491E-06  0.7842716E-06 -0.1916633E-06  0.1296186E+03  0.2578690E+02  0.0000000E+00 -0.5823120E-13
  0.1264583E+02 -0.1458621E+03 -0.8262285E+02 -0.9426767E-08  0.2543247E-06  0.1207804E-05 -0.9830692E-06  0.1072295E-06 -0.8966390E-07  0.1212911E+03  0.2597988E+02 -0.3685927E-12  0.1774206E-12
  0.1436667E+02 -0.1492185E+03 -0.2462272E+02  0.5642387E-06 -0.8222923E-07  0.1409560E-05 -0.1816661E-06  0.4107326E-06  0.3222704E-07  0.1226402E+03  0.6974809E+01  0.2690500E-12 -0.1226519E-12
  0.1608750E+02 -0.1525372E+03 -0.4899531E+00  0.1278235E-06  0.7421249E-08 -0.5068479E-05 -0.1495937E-07 -0.4316358E-06 -0.3492232E-08  0.1238512E+03  0.2370671E+00  0.4240069E-12  0.4442627E-14
  0.1780833E+02 -0.1533360E+03 -0.7699594E+01 -0.1579788E-05  0.3204298E-07 -0.2962103E-05 -0.7543713E-07  0.6292377E-06 -0.5251877E-08  0.1241091E+03  0.2269459E+01  0.2234370E-12  0.2574416E-13
  0.1952917E+02 -0.1542745E+03  0.1641434E+00 -0.1957911E-05 -0.1163784E-07  0.4929114E-06  0.2986962E-07  0.6974009E-06  0.5038714E-08  0.1244596E+03 -0.1026709E+00  0.1513560E-11 -0.8797216E-14
  0.2125000E+02 -0.1546324E+03  0.1151568E+01 -0.6689745E-06  0.5124576E-09 -0.4309767E-05 -0.2892193E-09 -0.1009773E-06 -0.6316199E-08  0.1245801E+03 -0.4131409E+00 -0.5349969E-13 -0.1077426E-14
  0.2297083E+02 -0.1552044E+03 -0.3410139E+00  0.1122250E-05 -0.3626049E-08 -0.4033612E-05  0.4718095E-07  0.7654651E-07  0.6684786E-10  0.1247884E+03  0.1317408E+00 -0.6334954E-12  0.1796686E-14
  0.2469167E+02 -0.1554253E+03  0.4371846E-02 -0.1098351E-06 -0.6132594E-12  0.2238946E-05 -0.3975558E-09 -0.9679970E-06 -0.2272196E-10  0.1248693E+03 -0.1546294E-02 -0.9024348E-12  0.3095482E-17
  0.2641250E+02 -0.1556103E+03  0.8991479E-02 -0.3813795E-06 -0.3720890E-10 -0.1076438E-05 -0.5127276E-09 -0.1739903E-05 -0.5488099E-10  0.1249326E+03 -0.4179658E-02  0.4648624E-12 -0.1407803E-15
  0.2813334E+02 -0.1557038E+03 -0.1335115E-01 -0.1332630E-05 -0.1120982E-09 -0.2421615E-05 -0.1561915E-09  0.1625003E-05 -0.1531722E-10  0.1249681E+03  0.4356855E-02  0.5495760E-12  0.1532664E-16
  0.2985417E+02 -0.1558211E+03  0.2879082E-01  0.4562063E-06  0.8377987E-10 -0.2575519E-06  0.2975412E-08  0.1197916E-07  0.3886824E-10  0.1250097E+03 -0.1066062E-01 -0.8987050E-12  0.2506879E-16
  0.3157500E+02 -0.1561722E+03  0.0000000E+00 -0.3718801E-06  0.0000000E+00 -0.2554080E-05  0.0000000E+00 -0.1887716E-08  0.0000000E+00  0.1251316E+03  0.0000000E+00  0.1296192E-12  0.0000000E+00
  0.3329583E+02 -0.1562078E+03  0.0000000E+00 -0.4350073E-06  0.0000000E+00 -0.1376628E-05  0.0000000E+00 -0.7106909E-06  0.0000000E+00  0.1251452E+03  0.0000000E+00 -0.1290661E-11  0.0000000E+00
  0.3501667E+02 -0.1562384E+03  0.0000000E+00 -0.1651114E-06  0.0000000E+00 -0.5106537E-07  0.0000000E+00  0.3268184E-06  0.0000000E+00  0.1251568E+03  0.0000000E+00 -0.2986917E-12  0.0000000E+00
  0.3673750E+02 -0.1562650E+03  0.0000000E+00  0.8550296E-06  0.0000000E+00 -0.3520710E-06  0.0000000E+00 -0.2028059E-06  0.0000000E+00  0.1251668E+03  0.0000000E+00  0.1237829E-11  0.0000000E+00
  0.3845834E+02 -0.1562879E+03  0.0000000E+00 -0.9376590E-06  0.0000000E+00 -0.3522808E-05  0.0000000E+00  0.4959519E-07  0.0000000E+00  0.1251757E+03  0.0000000E+00  0.4256789E-12  0.0000000E+00
  0.4017917E+02 -0.1563079E+03  0.0000000E+00  0.6601447E-06  0.0000000E+00 -0.5637191E-06  0.0000000E+00 -0.2477397E-06  0.0000000E+00  0.1251832E+03  0.0000000E+00  0.1629790E-11  0.0000000E+00
  0.4190000E+02 -0.1563256E+03  0.0000000E+00  0.6031592E-06  0.0000000E+00 -0.3997352E-06  0.0000000E+00  0.1045571E-05  0.0000000E+00  0.1251899E+03  0.0000000E+00 -0.6186300E-12  0.0000000E+00
Zone t="Motion of body    1 in DoF   6",I=    25,F=POINT
  0.6000000E+00 -0.2930989E-12  0.1148788E-19  0.4848367E-08 -0.1774273E-12 -0.2428613E-15 -0.6088049E-21  0.6094507E-08 -0.1215064E-12  0.3700743E-14  0.2117582E-19  0.4762263E-11  0.1025508E-19
  0.2320833E+01  0.2510500E-12 -0.2438100E-16  0.2679177E-08 -0.1590764E-08  0.1793897E-15 -0.7819808E-17  0.4890112E-08 -0.1021452E-08  0.2372728E-13  0.1775381E-17  0.4764329E-11  0.1007693E-16
  0.4041667E+01 -0.1316335E-12 -0.1400081E-14  0.5041079E-09 -0.3330008E-07  0.3433679E-16 -0.1647987E-16  0.4212482E-08 -0.1892887E-07  0.5168649E-12 -0.3608835E-15  0.4764974E-11  0.5613880E-15
  0.5762500E+01  0.1214550E-12 -0.1073005E-12  0.1112028E-07 -0.7889841E-07  0.1146347E-14 -0.3469447E-17  0.1010193E-07 -0.3734979E-07 -0.3252159E-13  0.5028963E-14  0.4765956E-11  0.4213762E-14
  0.7483334E+01 -0.1561928E-12  0.6208849E-12  0.1743163E-07 -0.5908194E-07  0.2818829E-15  0.1301043E-17  0.1238830E-07 -0.2308349E-07 -0.1936980E-12 -0.6176700E-15  0.4765206E-11  0.2647623E-13
  0.9204167E+01  0.4184128E-12 -0.5132186E-12  0.1925710E-07 -0.3669629E-07 -0.1869638E-15 -0.6125742E-17  0.1257516E-07 -0.1259562E-07  0.6716220E-13  0.1231112E-12  0.4764304E-11  0.4564851E-13
  0.1092500E+02  0.1182070E-12 -0.2170655E-12  0.3004259E-07  0.1214989E-06  0.2540556E-15  0.5587029E-17  0.1588759E-07  0.4288047E-07 -0.2069842E-12 -0.1432831E-12  0.4761483E-11  0.3214837E-13
  0.1264583E+02  0.1077403E-12  0.1889686E-12  0.7949856E-08  0.1305331E-07 -0.1448595E-15  0.1734723E-17  0.8353767E-08  0.4097760E-08  0.8990066E-13  0.2205145E-14  0.4759849E-11  0.3708210E-13
  0.1436667E+02  0.2674426E-12  0.4591102E-13  0.1020382E-07 -0.1009821E-08 -0.6954992E-16  0.3117081E-18  0.9056063E-08 -0.2869237E-09  0.5629525E-12 -0.9525373E-14  0.4760827E-11  0.1668964E-13
  0.1608750E+02  0.5700905E-12  0.5668002E-13  0.1076192E-07  0.1167974E-08 -0.6556096E-15 -0.2829090E-18  0.9192685E-08  0.5729532E-09  0.5962596E-13 -0.2727968E-13  0.4762301E-11  0.3244023E-13
  0.1780833E+02 -0.4195428E-12  0.3839029E-14  0.1056133E-07  0.1713642E-08 -0.1558573E-15 -0.1948176E-19  0.9102241E-08  0.5052320E-09 -0.7580897E-13 -0.9803544E-14  0.4759752E-11  0.5694509E-13
  0.1952917E+02 -0.3099888E-12  0.1802085E-13  0.1068379E-07 -0.9616941E-10 -0.3979463E-16  0.6024522E-19  0.9148940E-08 -0.5996298E-10  0.2037485E-13  0.1534522E-14  0.4758629E-11  0.1496530E-13
  0.2125000E+02  0.1414398E-12 -0.6881125E-14  0.1068425E-07 -0.5687890E-10 -0.7314411E-16 -0.1694066E-19  0.9144164E-08 -0.2041857E-10 -0.1735396E-12 -0.1569215E-14  0.4759452E-11  0.1556318E-13
  0.2297083E+02  0.1661069E-12 -0.2378716E-15  0.1070032E-07  0.5016468E-09 -0.5799824E-15 -0.6564505E-19  0.9148211E-08  0.1937727E-09 -0.3247901E-13 -0.1038701E-15  0.4759853E-11 -0.2694824E-13
  0.2469167E+02 -0.2851763E-12  0.1881743E-15  0.1071865E-07  0.1015832E-10  0.3462187E-15  0.1019087E-20  0.9152305E-08  0.3591157E-11 -0.1761129E-12 -0.5767475E-17  0.4760210E-11  0.1318462E-14
  0.2641250E+02 -0.3688231E-12  0.6033958E-15  0.1072261E-07 -0.6156053E-10 -0.1681360E-15  0.1990527E-19  0.9151770E-08 -0.2813879E-10 -0.2219395E-13 -0.2001311E-15  0.4761335E-11 -0.1120545E-13
  0.2813334E+02 -0.3173448E-12 -0.3052624E-16  0.1072314E-07  0.1066161E-11 -0.4735547E-16 -0.5327043E-21  0.9150786E-08  0.3479646E-12 -0.1149159E-13  0.3662782E-16  0.4760596E-11  0.4261709E-15
  0.2985417E+02 -0.1463728E-13 -0.1111889E-15  0.1073004E-07 -0.7379406E-11 -0.7437642E-17  0.4142521E-20  0.9151611E-08 -0.2732667E-11  0.8710965E-13 -0.6104413E-16  0.4760947E-11 -0.1259585E-14
  0.3157500E+02  0.3138090E-12  0.0000000E+00  0.1082086E-07  0.0000000E+00 -0.4360021E-15  0.0000000E+00  0.9185906E-08  0.0000000E+00 -0.8528763E-13  0.0000000E+00  0.4761019E-11  0.0000000E+00
  0.3329583E+02  0.4143218E-12  0.0000000E+00  0.1080953E-07  0.0000000E+00  0.1933964E-15  0.0000000E+00  0.9180208E-08  0.0000000E+00 -0.2191648E-12  0.0000000E+00  0.4761055E-11  0.0000000E+00
  0.3501667E+02  0.2240188E-12  0.0000000E+00  0.1080087E-07  0.0000000E+00 -0.1268222E-16  0.0000000E+00  0.9176480E-08  0.0000000E+00 -0.1394030E-12  0.0000000E+00  0.4761085E-11  0.0000000E+00
  0.3673750E+02 -0.2901161E-13  0.0000000E+00  0.1079247E-07  0.0000000E+00  0.4412183E-15  0.0000000E+00  0.9172823E-08  0.0000000E+00  0.4119649E-13  0.0000000E+00  0.4761113E-11  0.0000000E+00
  0.3845834E+02 -0.8498798E-13  0.0000000E+00  0.1078526E-07  0.0000000E+00 -0.1385674E-15  0.0000000E+00  0.9169451E-08  0.0000000E+00 -0.2475737E-12  0.0000000E+00  0.4761134E-11  0.0000000E+00
  0.4017917E+02  0.1839173E-12  0.0000000E+00  0.1077926E-07  0.0000000E+00  0.2597390E-15  0.0000000E+00  0.9166851E-08  0.0000000E+00 -0.1823257E-12  0.0000000E+00  0.4761158E-11  0.0000000E+00
  0.4190000E+02 -0.3018535E-13  0.0000000E+00  0.1077392E-07  0.0000000E+00 -0.9008969E-15  0.0000000E+00  0.9164342E-08  0.0000000E+00 -0.2645457E-12  0.0000000E+00  0.4761179E-11  0.0000000E+00
