 VARIABLES="Time (s)"
"AddedMass    1" "IRF    1"
"AddedMass    2" "IRF    2"
"AddedMass    3" "IRF    3"
"AddedMass    4" "IRF    4"
"AddedMass    5" "IRF    5"
"AddedMass    6" "IRF    6"
Zone t="DoF    1",I=   100,F=POINT
  0.0000000E+00  0.2168598E+03  0.1771033E+04  0.7676963E-07  0.9660799E-06  0.3104313E-05  0.1322033E-03 -0.6944176E-07 -0.1251040E-05 -0.1561647E+03 -0.7244945E+03  0.3207812E-12 -0.1625592E-11
  0.1000000E+00  0.2168598E+03  0.1113047E+04  0.7676963E-07 -0.8291056E-06  0.3104313E-05  0.1197773E-03 -0.6944176E-07 -0.5007470E-06 -0.1561647E+03 -0.4908886E+03  0.3207812E-12 -0.7241803E-12
  0.2000000E+00  0.2168598E+03 -0.1375483E+03  0.7676963E-07 -0.3422464E-05  0.3104313E-05  0.9033921E-04 -0.6944176E-07  0.8071909E-06 -0.1561647E+03 -0.2636964E+02  0.3207812E-12  0.2558834E-12
  0.3000000E+00  0.2168598E+03 -0.7864560E+03  0.7676963E-07 -0.2260048E-05  0.3104313E-05  0.5983494E-04 -0.6944176E-07  0.1144591E-05 -0.1561647E+03  0.2647902E+03  0.3207812E-12 -0.7867693E-12
  0.4000000E+00  0.2168598E+03 -0.6260684E+03  0.7676963E-07  0.2254527E-05  0.3104313E-05  0.3281632E-04 -0.6944176E-07  0.3380861E-06 -0.1561647E+03  0.2803351E+03  0.3207812E-12 -0.2616605E-11
  0.5000000E+00  0.2168598E+03 -0.3390200E+03  0.7676963E-07  0.5112732E-05  0.3104313E-05  0.2329242E-05 -0.6944176E-07 -0.4855956E-06 -0.1561647E+03  0.2167670E+03  0.3207812E-12 -0.2153162E-11
  0.6000000E+00  0.2168598E+03 -0.3584325E+03  0.7676963E-07  0.4054928E-05  0.3104313E-05 -0.3182012E-04 -0.6944176E-07 -0.4214073E-06 -0.1561647E+03  0.2173130E+03  0.3207812E-12  0.1589888E-11
  0.7000000E+00  0.2168598E+03 -0.4549008E+03  0.7676963E-07  0.1594493E-05  0.3104313E-05 -0.6116470E-04 -0.6944176E-07  0.2290270E-06 -0.1561647E+03  0.2233954E+03  0.3207812E-12  0.5761475E-11
  0.8000000E+00  0.2168598E+03 -0.2691581E+03  0.7676963E-07 -0.1417533E-06  0.3104313E-05 -0.7672380E-04 -0.6944176E-07  0.3973626E-06 -0.1561647E+03  0.1305240E+03  0.3207812E-12  0.6388425E-11
  0.9000000E+00  0.2168598E+03  0.1911382E+03  0.7676963E-07 -0.1524123E-05  0.3104313E-05 -0.7642105E-04 -0.6944176E-07 -0.4235870E-06 -0.1561647E+03 -0.5482426E+02  0.3207812E-12  0.2722856E-11
  0.1000000E+01  0.2168598E+03  0.5243607E+03  0.7676963E-07 -0.3397447E-05  0.3104313E-05 -0.6826663E-04 -0.6944176E-07 -0.1479457E-05 -0.1561647E+03 -0.1992686E+03  0.3207812E-12 -0.1949113E-11
  0.1100000E+01  0.2168598E+03  0.4029518E+03  0.7676963E-07 -0.5407279E-05  0.3104313E-05 -0.5881929E-04 -0.6944176E-07 -0.1629481E-05 -0.1561647E+03 -0.1837194E+03  0.3207812E-12 -0.4140961E-11
  0.1200000E+01  0.2168598E+03  0.5843717E+02  0.7676963E-07 -0.5710517E-05  0.3104313E-05 -0.4713704E-04 -0.6944176E-07 -0.6264524E-06 -0.1561647E+03 -0.6989426E+02  0.3207812E-12 -0.4105902E-11
  0.1300000E+01  0.2168598E+03 -0.7737225E+02  0.7676963E-07 -0.3469559E-05  0.3104313E-05 -0.3288207E-04 -0.6944176E-07  0.7935488E-06 -0.1561647E+03 -0.3514668E+01  0.3207812E-12 -0.4094434E-11
  0.1400000E+01  0.2168598E+03 -0.2254110E+02  0.7676963E-07  0.2084803E-07  0.3104313E-05 -0.1888224E-04 -0.6944176E-07  0.1678207E-05 -0.1561647E+03  0.5299526E+00  0.3207812E-12 -0.3614602E-11
  0.1500000E+01  0.2168598E+03 -0.1188887E+02  0.7676963E-07  0.4220231E-05  0.3104313E-05 -0.9765969E-05 -0.6944176E-07  0.1542778E-05 -0.1561647E+03  0.5212224E+01  0.3207812E-12 -0.3269177E-12
  0.1600000E+01  0.2168598E+03 -0.4193182E+02  0.7676963E-07  0.8571906E-05  0.3104313E-05 -0.7630153E-05 -0.6944176E-07  0.7243488E-06 -0.1561647E+03  0.1453868E+02  0.3207812E-12  0.5041026E-11
  0.1700000E+01  0.2168598E+03 -0.3415451E+02  0.7676963E-07  0.1008211E-04  0.3104313E-05 -0.8043715E-05 -0.6944176E-07  0.5367792E-07 -0.1561647E+03  0.1206499E+02  0.3207812E-12  0.8107418E-11
  0.1800000E+01  0.2168598E+03 -0.1401723E+02  0.7676963E-07  0.6548496E-05  0.3104313E-05 -0.8293705E-05 -0.6944176E-07  0.1751052E-07 -0.1561647E+03  0.4707702E+01  0.3207812E-12  0.5395339E-11
  0.1900000E+01  0.2168598E+03 -0.1849577E+01  0.7676963E-07 -0.3641068E-06  0.3104313E-05 -0.9126057E-05 -0.6944176E-07  0.3949991E-06 -0.1561647E+03 -0.2408673E+01  0.3207812E-12 -0.1386164E-11
  0.2000000E+01  0.2168598E+03  0.2853417E+02  0.7676963E-07 -0.6488233E-05  0.3104313E-05 -0.1042450E-04 -0.6944176E-07  0.5454959E-06 -0.1561647E+03 -0.1417797E+02  0.3207812E-12 -0.6671899E-11
  0.2100000E+01  0.2168598E+03  0.5045053E+02  0.7676963E-07 -0.8587808E-05  0.3104313E-05 -0.1383395E-04 -0.6944176E-07 -0.3273460E-07 -0.1561647E+03 -0.2408139E+02  0.3207812E-12 -0.6741840E-11
  0.2200000E+01  0.2168598E+03  0.2967716E+02  0.7676963E-07 -0.7200485E-05  0.3104313E-05 -0.1649688E-04 -0.6944176E-07 -0.1134868E-05 -0.1561647E+03 -0.2305096E+02  0.3207812E-12 -0.3030995E-11
  0.2300000E+01  0.2168598E+03  0.6571830E+02  0.7676963E-07 -0.4468618E-05  0.3104313E-05 -0.1259769E-04 -0.6944176E-07 -0.1920166E-05 -0.1561647E+03 -0.3257871E+02  0.3207812E-12  0.4346020E-12
  0.2400000E+01  0.2168598E+03  0.1879037E+03  0.7676963E-07 -0.8434455E-06  0.3104313E-05 -0.1661057E-05 -0.6944176E-07 -0.1696655E-05 -0.1561647E+03 -0.5099627E+02  0.3207812E-12  0.2047328E-11
  0.2500000E+01  0.2168598E+03  0.1104282E+03  0.7676963E-07  0.2759855E-05  0.3104313E-05  0.1349199E-04 -0.6944176E-07 -0.5038827E-06 -0.1561647E+03  0.7243110E+01  0.3207812E-12  0.3562900E-11
  0.2600000E+01  0.2168598E+03 -0.2905227E+03  0.7676963E-07  0.4387890E-05  0.3104313E-05  0.3012250E-04 -0.6944176E-07  0.8555167E-06 -0.1561647E+03  0.1603203E+03  0.3207812E-12  0.5462967E-11
  0.2700000E+01  0.2168598E+03 -0.6080402E+03  0.7676963E-07  0.4097568E-05  0.3104313E-05  0.4897205E-04 -0.6944176E-07  0.1339833E-05 -0.1561647E+03  0.2623356E+03  0.3207812E-12  0.5091536E-11
  0.2800000E+01  0.2168598E+03 -0.4805376E+03  0.7676963E-07  0.3343378E-05  0.3104313E-05  0.7234474E-04 -0.6944176E-07  0.6995323E-06 -0.1561647E+03  0.2007567E+03  0.3207812E-12  0.1005034E-11
  0.2900000E+01  0.2168598E+03 -0.8184124E+02  0.7676963E-07  0.2651407E-05  0.3104313E-05  0.9380292E-04 -0.6944176E-07 -0.1415964E-06 -0.1561647E+03  0.4026787E+02  0.3207812E-12 -0.4072182E-11
  0.3000000E+01  0.2168598E+03  0.1814902E+03  0.7676963E-07  0.1122579E-05  0.3104313E-05  0.1024215E-03 -0.6944176E-07 -0.1747021E-06 -0.1561647E+03 -0.8597775E+02  0.3207812E-12 -0.5983012E-11
  0.3100000E+01  0.2168598E+03  0.1713860E+03  0.7676963E-07 -0.2169540E-05  0.3104313E-05  0.9470227E-04 -0.6944176E-07  0.4875783E-06 -0.1561647E+03 -0.1310601E+03  0.3207812E-12 -0.3630767E-11
  0.3200000E+01  0.2168598E+03  0.2115283E+03  0.7676963E-07 -0.5126014E-05  0.3104313E-05  0.7547673E-04 -0.6944176E-07  0.8140427E-06 -0.1561647E+03 -0.1874944E+03  0.3207812E-12  0.2180694E-13
  0.3300000E+01  0.2168598E+03  0.6709061E+03  0.7676963E-07 -0.4041375E-05  0.3104313E-05  0.5311782E-04 -0.6944176E-07  0.1268963E-06 -0.1561647E+03 -0.3506742E+03  0.3207812E-12  0.1478967E-11
  0.3400000E+01  0.2168598E+03  0.1211696E+04  0.7676963E-07  0.2013540E-06  0.3104313E-05  0.2825167E-04 -0.6944176E-07 -0.9696594E-06 -0.1561647E+03 -0.4922883E+03  0.3207812E-12  0.3773878E-12
  0.3500000E+01  0.2168598E+03  0.9412903E+03  0.7676963E-07  0.2456498E-05  0.3104313E-05 -0.7967749E-05 -0.6944176E-07 -0.1125119E-05 -0.1561647E+03 -0.3329401E+03  0.3207812E-12 -0.6670481E-12
  0.3600000E+01  0.2168598E+03 -0.3238815E+03  0.7676963E-07  0.7508425E-06  0.3104313E-05 -0.5425006E-04 -0.6944176E-07  0.2875464E-07 -0.1561647E+03  0.1567119E+03  0.3207812E-12  0.1994444E-12
  0.3700000E+01  0.2168598E+03 -0.1500260E+04  0.7676963E-07 -0.1250600E-05  0.3104313E-05 -0.9463547E-04 -0.6944176E-07  0.1161139E-05 -0.1561647E+03  0.6019156E+03  0.3207812E-12  0.1362748E-11
  0.3800000E+01  0.2168598E+03 -0.1492463E+04  0.7676963E-07  0.2433605E-06  0.3104313E-05 -0.1147498E-03 -0.6944176E-07  0.9045050E-06 -0.1561647E+03  0.6323126E+03  0.3207812E-12  0.7513178E-12
  0.3900000E+01  0.2168598E+03 -0.5518066E+03  0.7676963E-07  0.3725767E-05  0.3104313E-05 -0.1145153E-03 -0.6944176E-07 -0.3426774E-06 -0.1561647E+03  0.3144588E+03  0.3207812E-12 -0.3492077E-12
  0.4000000E+01  0.2168598E+03  0.2135895E+03  0.7676963E-07  0.4185276E-05  0.3104313E-05 -0.1067323E-03 -0.6944176E-07 -0.1074177E-05 -0.1561647E+03  0.9583988E+01  0.3207812E-12  0.5871695E-12
  0.4100000E+01  0.2168598E+03  0.3147936E+03  0.7676963E-07  0.3511481E-06  0.3104313E-05 -0.9664361E-04 -0.6944176E-07 -0.6463534E-06 -0.1561647E+03 -0.9491826E+02  0.3207812E-12  0.3190830E-11
  0.4200000E+01  0.2168598E+03  0.1938514E+03  0.7676963E-07 -0.3536866E-05  0.3104313E-05 -0.7772826E-04 -0.6944176E-07  0.1656279E-06 -0.1561647E+03 -0.1110619E+03  0.3207812E-12  0.4283259E-11
  0.4300000E+01  0.2168598E+03  0.3074206E+03  0.7676963E-07 -0.4351417E-05  0.3104313E-05 -0.4740012E-04 -0.6944176E-07  0.2971556E-06 -0.1561647E+03 -0.1763458E+03  0.3207812E-12  0.1500202E-11
  0.4400000E+01  0.2168598E+03  0.5490560E+03  0.7676963E-07 -0.3374403E-05  0.3104313E-05 -0.1187049E-04 -0.6944176E-07 -0.3465543E-06 -0.1561647E+03 -0.2611584E+03  0.3207812E-12 -0.3575300E-11
  0.4500000E+01  0.2168598E+03  0.5422473E+03  0.7676963E-07 -0.2403647E-05  0.3104313E-05  0.1794722E-04 -0.6944176E-07 -0.7924687E-06 -0.1561647E+03 -0.2503521E+03  0.3207812E-12 -0.6683473E-11
  0.4600000E+01  0.2168598E+03  0.1462938E+03  0.7676963E-07 -0.1341380E-05  0.3104313E-05  0.3509816E-04 -0.6944176E-07 -0.1865628E-06 -0.1561647E+03 -0.9940475E+02  0.3207812E-12 -0.5376381E-11
  0.4700000E+01  0.2168598E+03 -0.3043315E+03  0.7676963E-07  0.7784590E-06  0.3104313E-05  0.4356977E-04 -0.6944176E-07  0.1105533E-05 -0.1561647E+03  0.8284838E+02  0.3207812E-12 -0.1527477E-11
  0.4800000E+01  0.2168598E+03 -0.3716032E+03  0.7676963E-07  0.4007331E-05  0.3104313E-05  0.4828884E-04 -0.6944176E-07  0.1924656E-05 -0.1561647E+03  0.1411154E+03  0.3207812E-12  0.1321088E-11
  0.4900000E+01  0.2168598E+03 -0.1369782E+03  0.7676963E-07  0.6411795E-05  0.3104313E-05  0.4825122E-04 -0.6944176E-07  0.1587250E-05 -0.1561647E+03  0.8182947E+02  0.3207812E-12  0.2609400E-11
  0.5000000E+01  0.2168598E+03 -0.2265017E+01  0.7676963E-07  0.6535713E-05  0.3104313E-05  0.4233792E-04 -0.6944176E-07  0.3726170E-06 -0.1561647E+03  0.3107923E+02  0.3207812E-12  0.4249263E-11
  0.5100000E+01  0.2168598E+03 -0.2229991E+02  0.7676963E-07  0.4861074E-05  0.3104313E-05  0.3223228E-04 -0.6944176E-07 -0.8580209E-06 -0.1561647E+03  0.2198861E+02  0.3207812E-12  0.5749532E-11
  0.5200000E+01  0.2168598E+03 -0.1718116E+02  0.7676963E-07  0.1075195E-05  0.3104313E-05  0.2325707E-04 -0.6944176E-07 -0.1314078E-05 -0.1561647E+03  0.1170333E+02  0.3207812E-12  0.4060455E-11
  0.5300000E+01  0.2168598E+03  0.2063273E+02  0.7676963E-07 -0.4882580E-05  0.3104313E-05  0.1959151E-04 -0.6944176E-07 -0.9269637E-06 -0.1561647E+03 -0.2629494E+01  0.3207812E-12 -0.1541032E-11
  0.5400000E+01  0.2168598E+03  0.2793485E+02  0.7676963E-07 -0.9886464E-05  0.3104313E-05  0.1858167E-04 -0.6944176E-07 -0.3524203E-06 -0.1561647E+03 -0.7109643E+01  0.3207812E-12 -0.7202372E-11
  0.5500000E+01  0.2168598E+03  0.2384802E+02  0.7676963E-07 -0.1031465E-04  0.3104313E-05  0.1836730E-04 -0.6944176E-07 -0.2394705E-06 -0.1561647E+03 -0.6299673E+01  0.3207812E-12 -0.7909670E-11
  0.5600000E+01  0.2168598E+03  0.2158437E+02  0.7676963E-07 -0.5736842E-05  0.3104313E-05  0.1921647E-04 -0.6944176E-07 -0.6706368E-06 -0.1561647E+03 -0.3150637E+01  0.3207812E-12 -0.2897349E-11
  0.5700000E+01  0.2168598E+03 -0.9357060E+01  0.7676963E-07  0.7245062E-06  0.3104313E-05  0.2135729E-04 -0.6944176E-07 -0.1123798E-05 -0.1561647E+03  0.8874701E+01  0.3207812E-12  0.3415754E-11
  0.5800000E+01  0.2168598E+03 -0.3705806E+02  0.7676963E-07  0.5183084E-05  0.3104313E-05  0.2782809E-04 -0.6944176E-07 -0.8891383E-06 -0.1561647E+03  0.2284045E+02  0.3207812E-12  0.6195099E-11
  0.5900000E+01  0.2168598E+03 -0.1525205E+02  0.7676963E-07  0.6823862E-05  0.3104313E-05  0.3668555E-04 -0.6944176E-07  0.1872613E-06 -0.1561647E+03  0.2798852E+02  0.3207812E-12  0.4861072E-11
  0.6000000E+01  0.2168598E+03 -0.7007461E+02  0.7676963E-07  0.6653918E-05  0.3104313E-05  0.4180097E-04 -0.6944176E-07  0.1445623E-05 -0.1561647E+03  0.5463292E+02  0.3207812E-12  0.2492007E-11
  0.6100000E+01  0.2168598E+03 -0.2786338E+03  0.7676963E-07  0.4460594E-05  0.3104313E-05  0.4053310E-04 -0.6944176E-07  0.1988198E-05 -0.1561647E+03  0.1108962E+03  0.3207812E-12  0.9865281E-12
  0.6200000E+01  0.2168598E+03 -0.3245674E+03  0.7676963E-07  0.9561062E-06  0.3104313E-05  0.3358561E-04 -0.6944176E-07  0.1375251E-05 -0.1561647E+03  0.9249778E+02  0.3207812E-12 -0.1148045E-11
  0.6300000E+01  0.2168598E+03  0.4100719E+02  0.7676963E-07 -0.1653834E-05  0.3104313E-05  0.2295187E-04 -0.6944176E-07  0.4908939E-07 -0.1561647E+03 -0.6306944E+02  0.3207812E-12 -0.4635019E-11
  0.6400000E+01  0.2168598E+03  0.4973370E+03  0.7676963E-07 -0.2759803E-05  0.3104313E-05  0.6631345E-05 -0.6944176E-07 -0.8627904E-06 -0.1561647E+03 -0.2337822E+03  0.3207812E-12 -0.6648742E-11
  0.6500000E+01  0.2168598E+03  0.6011344E+03  0.7676963E-07 -0.3338112E-05  0.3104313E-05 -0.2048345E-04 -0.6944176E-07 -0.6615358E-06 -0.1561647E+03 -0.2731970E+03  0.3207812E-12 -0.4448708E-11
  0.6600000E+01  0.2168598E+03  0.3585653E+03  0.7676963E-07 -0.3983847E-05  0.3104313E-05 -0.5451393E-04 -0.6944176E-07  0.8618128E-07 -0.1561647E+03 -0.1856390E+03  0.3207812E-12  0.6473032E-12
  0.6700000E+01  0.2168598E+03  0.1289374E+03  0.7676963E-07 -0.3651676E-05  0.3104313E-05 -0.8419867E-04 -0.6944176E-07  0.2731713E-06 -0.1561647E+03 -0.8408030E+02  0.3207812E-12  0.4399412E-11
  0.6800000E+01  0.2168598E+03  0.1575990E+03  0.7676963E-07 -0.5776431E-06  0.3104313E-05 -0.1016985E-03 -0.6944176E-07 -0.3810621E-06 -0.1561647E+03 -0.4361782E+02  0.3207812E-12  0.4131107E-11
  0.6900000E+01  0.2168598E+03  0.1736097E+03  0.7676963E-07  0.3684696E-05  0.3104313E-05 -0.1071866E-03 -0.6944176E-07 -0.1010220E-05 -0.1561647E+03  0.1750613E+02  0.3207812E-12  0.1339996E-11
  0.7000000E+01  0.2168598E+03 -0.3470996E+03  0.7676963E-07  0.4575415E-05  0.3104313E-05 -0.1077283E-03 -0.6944176E-07 -0.6231630E-06 -0.1561647E+03  0.2435044E+03  0.3207812E-12 -0.4868036E-12
  0.7100000E+01  0.2168598E+03 -0.1258517E+04  0.7676963E-07  0.1332002E-05  0.3104313E-05 -0.1039381E-03 -0.6944176E-07  0.5961507E-06 -0.1561647E+03  0.5555347E+03  0.3207812E-12  0.1216914E-12
  0.7200000E+01  0.2168598E+03 -0.1553060E+04  0.7676963E-07 -0.1400482E-05  0.3104313E-05 -0.8421874E-04 -0.6944176E-07  0.1250888E-05 -0.1561647E+03  0.6187996E+03  0.3207812E-12  0.1219832E-11
  0.7300000E+01  0.2168598E+03 -0.6105496E+03  0.7676963E-07 -0.3759608E-06  0.3104313E-05 -0.4413131E-04 -0.6944176E-07  0.4406768E-06 -0.1561647E+03  0.2486301E+03  0.3207812E-12  0.5644328E-12
  0.7400000E+01  0.2168598E+03  0.7926964E+03  0.7676963E-07  0.1930422E-05  0.3104313E-05  0.4456295E-05 -0.6944176E-07 -0.8986271E-06 -0.1561647E+03 -0.2845152E+03  0.3207812E-12 -0.7413766E-12
  0.7500000E+01  0.2168598E+03  0.1368794E+04  0.7676963E-07  0.1065385E-05  0.3104313E-05  0.4421436E-04 -0.6944176E-07 -0.1163314E-05 -0.1561647E+03 -0.5434479E+03  0.3207812E-12 -0.3551976E-12
  0.7600000E+01  0.2168598E+03  0.8973107E+03  0.7676963E-07 -0.2963682E-05  0.3104313E-05  0.6837289E-04 -0.6944176E-07 -0.1754789E-06 -0.1561647E+03 -0.4289479E+03  0.3207812E-12  0.9905060E-12
  0.7700000E+01  0.2168598E+03  0.2490736E+03  0.7676963E-07 -0.5233305E-05  0.3104313E-05  0.8549782E-04 -0.6944176E-07  0.7833564E-06 -0.1561647E+03 -0.2073403E+03  0.3207812E-12  0.4810256E-12
  0.7800000E+01  0.2168598E+03  0.5934798E+02  0.7676963E-07 -0.2949916E-05  0.3104313E-05  0.1001630E-03 -0.6944176E-07  0.7313840E-06 -0.1561647E+03 -0.9902895E+02  0.3207812E-12 -0.2588695E-11
  0.7900000E+01  0.2168598E+03  0.1067509E+03  0.7676963E-07  0.8984657E-06  0.3104313E-05  0.1055278E-03 -0.6944176E-07  0.2480256E-07 -0.1561647E+03 -0.6024701E+02  0.3207812E-12 -0.5443232E-11
  0.8000000E+01  0.2168598E+03 -0.4782248E+02  0.7676963E-07  0.2935400E-05  0.3104313E-05  0.9554475E-04 -0.6944176E-07 -0.2554593E-06 -0.1561647E+03  0.3420891E+02  0.3207812E-12 -0.4598264E-11
  0.8100000E+01  0.2168598E+03 -0.4143026E+03  0.7676963E-07  0.3438970E-05  0.3104313E-05  0.7183618E-04 -0.6944176E-07  0.3641263E-06 -0.1561647E+03  0.1838627E+03  0.3207812E-12  0.5448184E-13
  0.8200000E+01  0.2168598E+03 -0.6294105E+03  0.7676963E-07  0.3757411E-05  0.3104313E-05  0.4419529E-04 -0.6944176E-07  0.1136419E-05 -0.1561647E+03  0.2720138E+03  0.3207812E-12  0.4798645E-11
  0.8300000E+01  0.2168598E+03 -0.4048242E+03  0.7676963E-07  0.3912048E-05  0.3104313E-05  0.2218443E-04 -0.6944176E-07  0.9650375E-06 -0.1561647E+03  0.2010591E+03  0.3207812E-12  0.6007846E-11
  0.8400001E+01  0.2168598E+03  0.4885733E+02  0.7676963E-07  0.2699361E-05  0.3104313E-05  0.5252233E-05 -0.6944176E-07 -0.2518495E-06 -0.1561647E+03  0.3313260E+02  0.3207812E-12  0.3979323E-11
  0.8500000E+01  0.2168598E+03  0.2459029E+03  0.7676963E-07 -0.5726503E-06  0.3104313E-05 -0.9462794E-05 -0.6944176E-07 -0.1556035E-05 -0.1561647E+03 -0.6571172E+02  0.3207812E-12  0.1758477E-11
  0.8600000E+01  0.2168598E+03  0.1281329E+03  0.7676963E-07 -0.4291895E-05  0.3104313E-05 -0.2028677E-04 -0.6944176E-07 -0.1990672E-05 -0.1561647E+03 -0.5447540E+02  0.3207812E-12  0.2599426E-12
  0.8700000E+01  0.2168598E+03  0.3000783E+02  0.7676963E-07 -0.6806685E-05  0.3104313E-05 -0.2459923E-04 -0.6944176E-07 -0.1337366E-05 -0.1561647E+03 -0.2878568E+02  0.3207812E-12 -0.2363843E-11
  0.8800000E+01  0.2168598E+03  0.4421837E+02  0.7676963E-07 -0.7991045E-05  0.3104313E-05 -0.2182947E-04 -0.6944176E-07 -0.1591936E-06 -0.1561647E+03 -0.2646704E+02  0.3207812E-12 -0.5918682E-11
  0.8900001E+01  0.2168598E+03  0.3847839E+02  0.7676963E-07 -0.6529059E-05  0.3104313E-05 -0.1660108E-04 -0.6944176E-07  0.6481543E-06 -0.1561647E+03 -0.1905579E+02  0.3207812E-12 -0.6856962E-11
  0.9000000E+01  0.2168598E+03  0.1704636E+01  0.7676963E-07 -0.1142392E-05  0.3104313E-05 -0.1405038E-04 -0.6944176E-07  0.6578531E-06 -0.1561647E+03 -0.5161355E+01  0.3207812E-12 -0.2695695E-11
  0.9100000E+01  0.2168598E+03 -0.1456250E+02  0.7676963E-07  0.5843363E-05  0.3104313E-05 -0.1301025E-04 -0.6944176E-07  0.2429423E-06 -0.1561647E+03  0.3068592E+01  0.3207812E-12  0.4181101E-11
  0.9200000E+01  0.2168598E+03 -0.2614508E+02  0.7676963E-07  0.1015454E-04  0.3104313E-05 -0.1263108E-04 -0.6944176E-07  0.8201965E-07 -0.1561647E+03  0.8538296E+01  0.3207812E-12  0.8172503E-11
  0.9300000E+01  0.2168598E+03 -0.3984266E+02  0.7676963E-07  0.9335012E-05  0.3104313E-05 -0.1277570E-04 -0.6944176E-07  0.5388782E-06 -0.1561647E+03  0.1211744E+02  0.3207812E-12  0.6155791E-11
  0.9400001E+01  0.2168598E+03 -0.1746394E+02  0.7676963E-07  0.4762715E-05  0.3104313E-05 -0.1402403E-04 -0.6944176E-07  0.1317444E-05 -0.1561647E+03  0.4661815E+01  0.3207812E-12  0.5601632E-12
  0.9500000E+01  0.2168598E+03  0.4061851E+01  0.7676963E-07 -0.1574465E-07  0.3104313E-05 -0.2098461E-04 -0.6944176E-07  0.1622902E-05 -0.1561647E+03 -0.6758634E+01  0.3207812E-12 -0.3727005E-11
  0.9600000E+01  0.2168598E+03 -0.3996067E+02  0.7676963E-07 -0.3535254E-05  0.3104313E-05 -0.3359482E-04 -0.6944176E-07  0.9382419E-06 -0.1561647E+03 -0.9147275E+01  0.3207812E-12 -0.4591502E-11
  0.9700000E+01  0.2168598E+03  0.4645256E+01  0.7676963E-07 -0.5860951E-05  0.3104313E-05 -0.4679658E-04 -0.6944176E-07 -0.4267922E-06 -0.1561647E+03 -0.4503231E+02  0.3207812E-12 -0.3981073E-11
  0.9800000E+01  0.2168598E+03  0.2877249E+03  0.7676963E-07 -0.5914133E-05  0.3104313E-05 -0.5692374E-04 -0.6944176E-07 -0.1585591E-05 -0.1561647E+03 -0.1428042E+03  0.3207812E-12 -0.3692257E-11
  0.9900001E+01  0.2168598E+03  0.5002595E+03  0.7676963E-07 -0.3765315E-05  0.3104313E-05 -0.6317945E-04 -0.6944176E-07 -0.1705404E-05 -0.1561647E+03 -0.1911296E+03  0.3207812E-12 -0.2188561E-11
Zone t="DoF    2",I=   100,F=POINT
  0.0000000E+00 -0.5676479E-07  0.8085331E-05  0.2168596E+03  0.1771031E+04  0.4022577E-07 -0.1222597E-06  0.1561646E+03  0.7244937E+03  0.4458099E-07 -0.1809644E-05  0.9265552E-08 -0.1128652E-06
  0.1000000E+00 -0.5676479E-07  0.6832737E-05  0.2168596E+03  0.1113046E+04  0.4022577E-07 -0.1072166E-06  0.1561646E+03  0.4908881E+03  0.4458099E-07 -0.1062416E-05  0.9265552E-08 -0.1336046E-06
  0.2000000E+00 -0.5676479E-07  0.3721626E-05  0.2168596E+03 -0.1375485E+03  0.4022577E-07 -0.6659930E-07  0.1561646E+03  0.2636960E+02  0.4458099E-07  0.6539332E-06  0.9265552E-08 -0.1397343E-06
  0.3000000E+00 -0.5676479E-07  0.8567384E-07  0.2168596E+03 -0.7864553E+03  0.4022577E-07 -0.9667660E-08  0.1561646E+03 -0.2647898E+03  0.4458099E-07  0.2188691E-05  0.9265552E-08 -0.3988528E-07
  0.4000000E+00 -0.5676479E-07 -0.3195156E-05  0.2168596E+03 -0.6260681E+03  0.4022577E-07  0.5528992E-07  0.1561646E+03 -0.2803347E+03  0.4458099E-07  0.2726564E-05  0.9265552E-08  0.1418089E-06
  0.5000000E+00 -0.5676479E-07 -0.5789483E-05  0.2168596E+03 -0.3390198E+03  0.4022577E-07  0.1134929E-06  0.1561646E+03 -0.2167668E+03  0.4458099E-07  0.2305832E-05  0.9265552E-08  0.2537612E-06
  0.6000000E+00 -0.5676479E-07 -0.6832565E-05  0.2168596E+03 -0.3584322E+03  0.4022577E-07  0.1453087E-06  0.1561646E+03 -0.2173130E+03  0.4458099E-07  0.1435035E-05  0.9265552E-08  0.1944364E-06
  0.7000000E+00 -0.5676479E-07 -0.5312450E-05  0.2168596E+03 -0.4548998E+03  0.4022577E-07  0.1409954E-06  0.1561646E+03 -0.2233951E+03  0.4458099E-07  0.3709072E-06  0.9265552E-08  0.2106558E-07
  0.8000000E+00 -0.5676479E-07 -0.1804268E-05  0.2168596E+03 -0.2691564E+03  0.4022577E-07  0.1046803E-06  0.1561646E+03 -0.1305234E+03  0.4458099E-07 -0.1198600E-05  0.9265552E-08 -0.1174182E-06
  0.9000000E+00 -0.5676479E-07  0.1173759E-05  0.2168596E+03  0.1911395E+03  0.4022577E-07  0.5081177E-07  0.1561646E+03  0.5482477E+02  0.4458099E-07 -0.3539498E-05  0.9265552E-08 -0.1220559E-06
  0.1000000E+01 -0.5676479E-07  0.1656394E-05  0.2168596E+03  0.5243606E+03  0.4022577E-07 -0.1171989E-09  0.1561646E+03  0.1992685E+03  0.4458099E-07 -0.5967726E-05  0.9265552E-08 -0.3140945E-07
  0.1100000E+01 -0.5676479E-07  0.5643270E-06  0.2168596E+03  0.4029502E+03  0.4022577E-07 -0.3959941E-07  0.1561646E+03  0.1837185E+03  0.4458099E-07 -0.6945392E-05  0.9265552E-08  0.4676514E-07
  0.1200000E+01 -0.5676479E-07  0.1962114E-06  0.2168596E+03  0.5843548E+02  0.4022577E-07 -0.7449536E-07  0.1561646E+03  0.6989328E+02  0.4458099E-07 -0.5216993E-05  0.9265552E-08  0.4878129E-07
  0.1300000E+01 -0.5676479E-07  0.1104708E-05  0.2168596E+03 -0.7737256E+02  0.4022577E-07 -0.1077363E-06  0.1561646E+03  0.3514321E+01  0.4458099E-07 -0.1040162E-05  0.9265552E-08 -0.2164216E-07
  0.1400000E+01 -0.5676479E-07  0.2119982E-05  0.2168596E+03 -0.2253999E+02  0.4022577E-07 -0.1299019E-06  0.1561646E+03 -0.5295007E+00  0.4458099E-07  0.3800091E-05  0.9265552E-08 -0.9353395E-07
  0.1500000E+01 -0.5676479E-07  0.2382696E-05  0.2168596E+03 -0.1188780E+02  0.4022577E-07 -0.1272459E-06  0.1561646E+03 -0.5211514E+01  0.4458099E-07  0.7418704E-05  0.9265552E-08 -0.7262516E-07
  0.1600000E+01 -0.5676479E-07  0.1901786E-05  0.2168596E+03 -0.4193233E+02  0.4022577E-07 -0.9948033E-07  0.1561646E+03 -0.1453838E+02  0.4458099E-07  0.8805712E-05  0.9265552E-08  0.3612751E-07
  0.1700000E+01 -0.5676479E-07  0.1195886E-05  0.2168596E+03 -0.3415641E+02  0.4022577E-07 -0.6630800E-07  0.1561646E+03 -0.1206519E+02  0.4458099E-07  0.7798254E-05  0.9265552E-08  0.1159954E-06
  0.1800000E+01 -0.5676479E-07  0.7704039E-06  0.2168596E+03 -0.1401860E+02  0.4022577E-07 -0.4581293E-07  0.1561646E+03 -0.4707880E+01  0.4458099E-07  0.4913947E-05  0.9265552E-08  0.8022037E-07
  0.1900000E+01 -0.5676479E-07  0.5891195E-06  0.2168596E+03 -0.1849015E+01  0.4022577E-07 -0.3407186E-07  0.1561646E+03  0.2408879E+01  0.4458099E-07  0.9097143E-06  0.9265552E-08 -0.3514456E-07
  0.2000000E+01 -0.5676479E-07  0.1414157E-06  0.2168596E+03  0.2853592E+02  0.4022577E-07 -0.1312901E-07  0.1561646E+03  0.1417830E+02  0.4458099E-07 -0.3437146E-05  0.9265552E-08 -0.1152081E-06
  0.2100000E+01 -0.5676479E-07 -0.7838099E-06  0.2168596E+03  0.5045145E+02  0.4022577E-07  0.2825783E-07  0.1561646E+03  0.2408130E+02  0.4458099E-07 -0.7058415E-05  0.9265552E-08 -0.7849339E-07
  0.2200000E+01 -0.5676479E-07 -0.1806517E-05  0.2168596E+03  0.2967642E+02  0.4022577E-07  0.7754605E-07  0.1561646E+03  0.2305023E+02  0.4458099E-07 -0.8793469E-05  0.9265552E-08  0.2875928E-07
  0.2300000E+01 -0.5676479E-07 -0.2248298E-05  0.2168596E+03  0.6571700E+02  0.4022577E-07  0.1126688E-06  0.1561646E+03  0.3257792E+02  0.4458099E-07 -0.7862654E-05  0.9265552E-08  0.8426930E-07
  0.2400000E+01 -0.5676479E-07 -0.1704751E-05  0.2168596E+03  0.1879034E+03  0.4022577E-07  0.1254940E-06  0.1561646E+03  0.5099612E+02  0.4458099E-07 -0.4344008E-05  0.9265552E-08  0.4227729E-07
  0.2500000E+01 -0.5676479E-07 -0.8535556E-06  0.2168596E+03  0.1104295E+03  0.4022577E-07  0.1231817E-06  0.1561646E+03 -0.7242442E+01  0.4458099E-07  0.2957088E-06  0.9265552E-08 -0.3423385E-07
  0.2600000E+01 -0.5676479E-07 -0.1275890E-05  0.2168596E+03 -0.2905207E+03  0.4022577E-07  0.1138095E-06  0.1561646E+03 -0.1603194E+03  0.4458099E-07  0.3890237E-05  0.9265552E-08 -0.6481226E-07
  0.2700000E+01 -0.5676479E-07 -0.3025373E-05  0.2168596E+03 -0.6080388E+03  0.4022577E-07  0.9381522E-07  0.1561646E+03 -0.2623351E+03  0.4458099E-07  0.5210036E-05  0.9265552E-08 -0.4125781E-08
  0.2800000E+01 -0.5676479E-07 -0.3777713E-05  0.2168596E+03 -0.4805379E+03  0.4022577E-07  0.5158065E-07  0.1561646E+03 -0.2007568E+03  0.4458099E-07  0.4592824E-05  0.9265552E-08  0.1172434E-06
  0.2900000E+01 -0.5676479E-07 -0.1689391E-05  0.2168596E+03 -0.8184235E+02  0.4022577E-07 -0.1091851E-07  0.1561646E+03 -0.4026827E+02  0.4458099E-07  0.3228025E-05  0.9265552E-08  0.1812927E-06
  0.3000000E+01 -0.5676479E-07  0.2236371E-05  0.2168596E+03  0.1814892E+03  0.4022577E-07 -0.7626235E-07  0.1561646E+03  0.8597757E+02  0.4458099E-07  0.1951542E-05  0.9265552E-08  0.9549198E-07
  0.3100000E+01 -0.5676479E-07  0.5561326E-05  0.2168596E+03  0.1713855E+03  0.4022577E-07 -0.1247063E-06  0.1561646E+03  0.1310601E+03  0.4458099E-07  0.7429491E-06  0.9265552E-08 -0.9554959E-07
  0.3200000E+01 -0.5676479E-07  0.6955756E-05  0.2168596E+03  0.2115280E+03  0.4022577E-07 -0.1403543E-06  0.1561646E+03  0.1874943E+03  0.4458099E-07 -0.6356823E-06  0.9265552E-08 -0.2419430E-06
  0.3300000E+01 -0.5676479E-07  0.6599265E-05  0.2168596E+03  0.6709052E+03  0.4022577E-07 -0.1203557E-06  0.1561646E+03  0.3506738E+03  0.4458099E-07 -0.1921298E-05  0.9265552E-08 -0.2256231E-06
  0.3400000E+01 -0.5676479E-07  0.4789216E-05  0.2168596E+03  0.1211695E+04  0.4022577E-07 -0.7579890E-07  0.1561646E+03  0.4922877E+03  0.4458099E-07 -0.2390814E-05  0.9265552E-08 -0.8747253E-07
  0.3500000E+01 -0.5676479E-07  0.1470698E-05  0.2168596E+03  0.9412896E+03  0.4022577E-07 -0.1816732E-07  0.1561646E+03  0.3329398E+03  0.4458099E-07 -0.1548093E-05  0.9265552E-08  0.2877331E-07
  0.3600000E+01 -0.5676479E-07 -0.2707330E-05  0.2168596E+03 -0.3238811E+03  0.4022577E-07  0.4288373E-07  0.1561646E+03 -0.1567117E+03  0.4458099E-07  0.1880564E-06  0.9265552E-08  0.6197899E-07
  0.3700000E+01 -0.5676479E-07 -0.6226044E-05  0.2168596E+03 -0.1500259E+04  0.4022577E-07  0.9349158E-07  0.1561646E+03 -0.6019150E+03  0.4458099E-07  0.1653018E-05  0.9265552E-08  0.7589326E-07
  0.3800000E+01 -0.5676479E-07 -0.7725419E-05  0.2168596E+03 -0.1492461E+04  0.4022577E-07  0.1212567E-06  0.1561646E+03 -0.6323120E+03  0.4458099E-07  0.1836656E-05  0.9265552E-08  0.1380406E-06
  0.3900000E+01 -0.5676479E-07 -0.6977250E-05  0.2168596E+03 -0.5518058E+03  0.4022577E-07  0.1214056E-06  0.1561646E+03 -0.3144585E+03  0.4458099E-07  0.6501299E-06  0.9265552E-08  0.2079505E-06
  0.4000000E+01 -0.5676479E-07 -0.4737185E-05  0.2168596E+03  0.2135896E+03  0.4022577E-07  0.9432148E-07  0.1561646E+03 -0.9584052E+01  0.4458099E-07 -0.1065910E-05  0.9265552E-08  0.1690847E-06
  0.4100000E+01 -0.5676479E-07 -0.1645207E-05  0.2168596E+03  0.3147937E+03  0.4022577E-07  0.4057143E-07  0.1561646E+03  0.9491803E+02  0.4458099E-07 -0.2363983E-05  0.9265552E-08 -0.5907109E-08
  0.4200000E+01 -0.5676479E-07  0.2014582E-05  0.2168596E+03  0.1938518E+03  0.4022577E-07 -0.2930945E-07  0.1561646E+03  0.1110619E+03  0.4458099E-07 -0.2928194E-05  0.9265552E-08 -0.1857314E-06
  0.4300000E+01 -0.5676479E-07  0.5136667E-05  0.2168596E+03  0.3074210E+03  0.4022577E-07 -0.9391246E-07  0.1561646E+03  0.1763459E+03  0.4458099E-07 -0.3024400E-05  0.9265552E-08 -0.2257651E-06
  0.4400000E+01 -0.5676479E-07  0.5930663E-05  0.2168596E+03  0.5490557E+03  0.4022577E-07 -0.1345425E-06  0.1561646E+03  0.2611582E+03  0.4458099E-07 -0.2844152E-05  0.9265552E-08 -0.1116415E-06
  0.4500000E+01 -0.5676479E-07  0.3889878E-05  0.2168596E+03  0.5422458E+03  0.4022577E-07 -0.1424019E-06  0.1561646E+03  0.2503515E+03  0.4458099E-07 -0.1939010E-05  0.9265552E-08  0.3931685E-07
  0.4600000E+01 -0.5676479E-07  0.1052889E-05  0.2168596E+03  0.1462918E+03  0.4022577E-07 -0.1216268E-06  0.1561646E+03  0.9940391E+02  0.4458099E-07  0.3609781E-06  0.9265552E-08  0.9799275E-07
  0.4700000E+01 -0.5676479E-07 -0.4811446E-07  0.2168596E+03 -0.3043324E+03  0.4022577E-07 -0.8965054E-07  0.1561646E+03 -0.8284874E+02  0.4458099E-07  0.3863953E-05  0.9265552E-08  0.4830568E-07
  0.4800000E+01 -0.5676479E-07  0.6130850E-06  0.2168596E+03 -0.3716024E+03  0.4022577E-07 -0.5710543E-07  0.1561646E+03 -0.1411149E+03  0.4458099E-07  0.7111589E-05  0.9265552E-08 -0.3214004E-07
  0.4900000E+01 -0.5676479E-07  0.1055370E-05  0.2168596E+03 -0.1369765E+03  0.4022577E-07 -0.1957674E-07  0.1561646E+03 -0.8182848E+02  0.4458099E-07  0.8182278E-05  0.9265552E-08 -0.6450558E-07
  0.5000000E+01 -0.5676479E-07  0.3156579E-06  0.2168596E+03 -0.2264212E+01  0.4022577E-07  0.2720051E-07  0.1561646E+03 -0.3107853E+02  0.4458099E-07  0.6211798E-05  0.9265552E-08 -0.1090709E-07