VARIABLES="w (rad/s)"
"abs(F   1   1)" "angle(F   1   1)"
"abs(F   1   2)" "angle(F   1   2)"
"abs(F   1   3)" "angle(F   1   3)"
"abs(F   1   4)" "angle(F   1   4)"
"abs(F   1   5)" "angle(F   1   5)"
"abs(F   1   6)" "angle(F   1   6)"
Zone t="Diffraction force - beta =   0.000 deg",I=    25,F=POINT
  0.6000000E+00  0.1400841E+03 -0.1570792E+01  0.2910770E-02  0.1295828E-04  0.1272681E+04 -0.1088717E-03  0.3667285E-03 -0.1151683E-02  0.9481807E+02  0.1570798E+01  0.3239895E-11  0.3027303E+01
  0.2320833E+01  0.1701403E+04 -0.1560458E+01  0.1850519E-02 -0.3129190E+01  0.7123652E+03 -0.1704843E-01  0.2626425E-02 -0.1572993E-02  0.1092496E+04  0.1581134E+01  0.1332546E-10  0.3001430E+01
  0.4041667E+01  0.3327175E+04 -0.1440953E+01  0.2283785E-02 -0.2961820E-01  0.2569764E+03 -0.8877442E-01  0.7789753E-03 -0.3068344E+01  0.1893138E+04  0.1700539E+01  0.5840853E-11  0.2725838E+01
  0.5762500E+01  0.2916510E+04 -0.1265866E+01  0.1839023E-02  0.2186738E+00  0.2507311E+01  0.2193761E+01  0.6391754E-03  0.1816003E+00  0.1390454E+04  0.1874256E+01  0.1929428E-10 -0.1325282E+01
  0.7483334E+01  0.1602145E+04 -0.1430067E+01  0.5208792E-03 -0.1494755E+01  0.4845084E+01  0.1948858E+01  0.1350844E-03 -0.2040814E+01  0.6404224E+03  0.1709739E+01  0.4643507E-11 -0.1169119E+01
  0.9204167E+01  0.7216157E+03 -0.1910270E+01  0.2026908E-03 -0.4408633E+00  0.3977207E+01  0.1252769E+01  0.5596509E-04 -0.1621138E+01  0.2489828E+03  0.1232079E+01  0.9197343E-11 -0.2195137E+01
  0.1092500E+02  0.8075561E+03  0.1187427E+01  0.5453117E-04  0.1726919E+01  0.4305802E+01  0.4519950E+00  0.2175915E-04 -0.8195386E+00  0.2897525E+03 -0.1949191E+01  0.2743324E-11  0.2586609E+01
  0.1264583E+02  0.6684847E+03  0.2315738E+01  0.5155001E-07 -0.5100368E+00  0.4548206E+01 -0.1775941E+00  0.4646333E-04  0.3915282E-01  0.2161491E+03 -0.8416671E+00  0.3264393E-12  0.1481488E+01
  0.1436667E+02  0.2845718E+03  0.1661893E+01  0.9316271E-04  0.1562816E+00  0.5129210E+01 -0.2157889E+00  0.5395479E-04 -0.3113521E+01  0.8342146E+02 -0.1482607E+01  0.1955386E-11  0.4060954E+00
  0.1608750E+02  0.6458216E+02 -0.1664919E+01  0.2339797E-04  0.2158311E+01  0.1688953E+01 -0.3026000E+01  0.4400605E-04 -0.1623778E+00  0.3227249E+02  0.1478220E+01  0.5551029E-12  0.1218058E+01
  0.1780833E+02  0.9189777E+02 -0.1575035E+01  0.2677007E-04  0.3047415E+01  0.4433847E+01 -0.3125462E+01  0.9088853E-04 -0.3140054E+01  0.2730241E+02  0.1566589E+01  0.1370645E-11  0.7864850E+00
  0.1952917E+02  0.1956351E+02  0.1576297E+01  0.3418124E-04  0.3130250E+01  0.1675994E+01  0.3133013E+01  0.5836865E-04  0.3140245E+01  0.1212010E+02 -0.1565271E+01  0.1903555E-11 -0.1593400E+01
  0.2125000E+02  0.3751144E+02 -0.1580691E+01  0.1340374E-05 -0.2672205E+00  0.1013596E+01  0.5061365E-02  0.4076790E-05 -0.3103627E+01  0.1352147E+02  0.1560947E+01  0.4546662E-12  0.1520220E+01
  0.2297083E+02  0.2244718E+02 -0.1573988E+01  0.6650098E-05  0.8465457E-01  0.7156661E+00  0.6607204E-02  0.1308513E-04 -0.3139936E+01  0.8672109E+01  0.1567605E+01  0.2299084E-12 -0.2400790E+01
  0.2469167E+02  0.3136248E+02  0.1570784E+01  0.2099101E-06  0.2883892E+01  0.5704819E-01 -0.7809563E-05  0.7810045E-06  0.3798777E-01  0.1108870E+02 -0.1570808E+01  0.3618004E-12  0.1613337E+01
  0.2641250E+02  0.1753841E+01 -0.1568909E+01  0.2475186E-05 -0.5644856E-02  0.1613858E+00  0.3137731E+01  0.2992441E-05 -0.3136574E+01  0.8000920E+00  0.1572686E+01  0.3189445E-13 -0.1101924E+01
  0.2813334E+02  0.4950607E+01 -0.1570750E+01  0.7052999E-06  0.3115827E+01  0.9150550E-01  0.3141567E+01  0.1188999E-05 -0.1931268E-02  0.1615321E+01  0.1570842E+01  0.7317446E-13 -0.2004529E+01
  0.2985417E+02  0.1153964E+01  0.1570769E+01  0.4230334E-06  0.1082182E-01  0.6971965E-01 -0.5022106E-04  0.3048570E-07  0.3067615E+01  0.4272400E+00 -0.1570825E+01  0.2751385E-13 -0.1641395E+01
  0.3157500E+02  0.7376139E-01 -0.1570783E+01  0.3577276E-07 -0.6426586E-01  0.8527305E-03  0.3293561E-05  0.9666426E-08  0.2661198E+00  0.6098791E-01  0.1570802E+01  0.2542055E-13 -0.1572603E+01
  0.3329583E+02  0.3148465E+00  0.1570796E+01  0.3242082E-06  0.3138060E+01  0.9470158E-02 -0.3141592E+01  0.9493694E-07 -0.2999306E-02  0.1202040E+00 -0.1570795E+01  0.6738876E-14  0.9717650E+00
  0.3501667E+02  0.2488117E+00 -0.1570796E+01  0.2805675E-08  0.3126341E+01  0.1192300E-02  0.1147643E-05  0.2064633E-07  0.7502270E-02  0.8763620E-01  0.1570796E+01  0.4757183E-15 -0.1897652E+01
  0.3673750E+02  0.8594730E-01  0.1570796E+01  0.2315891E-07  0.8834176E-02  0.1242439E-02  0.4386652E-06  0.1126520E-07  0.5951078E-02  0.3014207E-01 -0.1570796E+01  0.2059688E-14 -0.1575003E+01
  0.3845834E+02  0.1313811E-01 -0.1570796E+01  0.1364424E-07 -0.3135756E+01  0.6502670E-03  0.3141592E+01  0.4725507E-08  0.3136720E+01  0.4875354E-02  0.1570797E+01  0.2255081E-15 -0.7953743E+00
  0.4017917E+02  0.1735852E-02 -0.1570799E+01  0.1381722E-08  0.6157089E-03  0.1339533E-03  0.2799135E-06  0.3733009E-09 -0.3130160E+01  0.4678776E-03  0.1570795E+01  0.5750329E-16 -0.1407927E+01
  0.4190000E+02  0.1848089E-02  0.1570796E+01  0.5189576E-09 -0.3130146E+01  0.2395065E-05  0.2796110E-05  0.2382380E-09  0.1218785E-02  0.6237681E-03 -0.1570796E+01  0.2482871E-16  0.1485542E+01
