VARIABLES="w (rad/s)"
"abs(F   1   1)" "angle(F   1   1)"
"abs(F   1   2)" "angle(F   1   2)"
"abs(F   1   3)" "angle(F   1   3)"
"abs(F   1   4)" "angle(F   1   4)"
"abs(F   1   5)" "angle(F   1   5)"
"abs(F   1   6)" "angle(F   1   6)"
Zone t="FKforce - beta =   0.000",I=    25,F=POINT
  0.6000000E+00  0.4780904E+02 -0.1570797E+01  0.2909541E-02  0.3168917E-03  0.1279041E+04  0.1165026E-10  0.3657342E-03 -0.7435625E-03  0.3224894E+02  0.1570787E+01  0.3183677E-11 -0.3124853E+01
  0.2320833E+01  0.5584488E+03 -0.1570796E+01  0.1774062E-02 -0.3134170E+01  0.7636150E+03  0.2966124E-08  0.2614737E-02 -0.5157518E-03  0.3565776E+03  0.1570797E+01  0.1388016E-10 -0.2956245E+01
  0.4041667E+01  0.1038063E+04 -0.1570796E+01  0.2352044E-02 -0.6240378E-03  0.2430870E+03  0.1471193E-08  0.1062404E-02 -0.3130042E+01  0.5834186E+03  0.1570796E+01  0.1310965E-10 -0.3067814E+01
  0.5762500E+01  0.1102014E+04 -0.1570796E+01  0.2948316E-03 -0.2552336E-02  0.3924441E+02  0.2430090E-07  0.1130433E-02 -0.1662557E-02  0.5126486E+03  0.1570796E+01  0.4860299E-11 -0.1340710E+01
  0.7483334E+01  0.8367292E+03 -0.1570796E+01  0.1535798E-03 -0.3044259E+01  0.2906145E+01 -0.1153680E-07  0.3603899E-04  0.2948781E+01  0.3215556E+03  0.1570796E+01  0.6735789E-11 -0.1436955E+01
  0.9204167E+01  0.3798769E+03 -0.1570796E+01  0.1704752E-03 -0.2253394E-01  0.7349242E-01  0.5068945E-07  0.1440827E-04  0.3097620E+01  0.1272111E+03  0.1570796E+01  0.3754083E-11 -0.1339073E+01
  0.1092500E+02  0.9280824E+02  0.1570796E+01  0.2888522E-05 -0.2636518E+01  0.6818002E-03  0.3141593E+01  0.2354289E-04 -0.8435670E-01  0.2864048E+02 -0.1570796E+01  0.2744775E-12  0.2314057E+01
  0.1264583E+02  0.3318483E+03  0.1570796E+01  0.1605336E-04  0.3047982E+01  0.4182322E-04  0.3141593E+01  0.3824623E-05 -0.3137044E+01  0.9793697E+02 -0.1570796E+01  0.1293550E-11  0.1592234E+01
  0.1436667E+02  0.2256071E+03  0.1570796E+01  0.3192370E-05  0.5647139E+00  0.3091072E-06  0.3141593E+01  0.5074146E-05  0.3065816E+01  0.6508487E+02 -0.1570796E+01  0.1797936E-12 -0.1538606E+01
  0.1608750E+02  0.1343757E+02 -0.1570797E+01  0.8138702E-05  0.3136376E+01  0.1969999E-09  0.1268022E-05  0.2701930E-05  0.3040683E+01  0.3835233E+01  0.1570795E+01  0.2370949E-12  0.1691283E+01
  0.1780833E+02  0.8964618E+02 -0.1570796E+01  0.1311033E-05  0.2893964E+01  0.3616400E-11  0.5021676E-06  0.1850873E-06 -0.1000440E+01  0.2546834E+02  0.1570796E+01  0.9867895E-12  0.1525753E+01
  0.1952917E+02  0.1672405E+02 -0.1570796E+01  0.8215085E-06 -0.3091153E+01  0.1563077E-14  0.1337818E-05  0.2902309E-06 -0.1591586E+00  0.4742762E+01  0.1570796E+01  0.9044389E-12 -0.1520142E+01
  0.2125000E+02  0.1704843E+02  0.1570796E+01  0.4676662E-06 -0.2849370E+01  0.3208750E-17  0.3141593E+01  0.1178360E-06  0.2952336E+01  0.4831716E+01 -0.1570796E+01  0.4094059E-12  0.1636187E+01
  0.2297083E+02  0.1133062E+01  0.1570796E+01  0.3452384E-07  0.2225809E+01  0.3746503E-21 -0.3141593E+01  0.5979710E-07 -0.2801879E+01  0.3210584E+00 -0.1570796E+01  0.1694725E-13 -0.1004799E+00
  0.2469167E+02  0.4066254E+00 -0.1570796E+01  0.3091064E-07  0.9650644E+00  0.2958547E-24 -0.5728550E-07  0.1095769E-07  0.2467914E+01  0.1152128E+00  0.1570797E+01  0.8769086E-13  0.1652663E+01
  0.2641250E+02  0.2256005E+00  0.1570796E+01  0.2449727E-07 -0.2821489E-01  0.1015804E-28 -0.3141591E+01  0.1415835E-07 -0.3106462E+01  0.6392027E-01 -0.1570797E+01  0.7748933E-13  0.1573925E+01
  0.2813334E+02  0.7384532E+00 -0.1570796E+01  0.1070321E-08  0.5617961E+00  0.1671246E-32 -0.3141591E+01  0.6434131E-09  0.4803615E+00  0.2092286E+00  0.1570796E+01  0.4103078E-13 -0.1605960E+01
  0.2985417E+02  0.3474298E+00  0.1570796E+01  0.6162348E-08  0.2967464E+01  0.8220461E-37 -0.9205094E-06  0.6224715E-09 -0.1835308E-01  0.9843852E-01 -0.1570796E+01  0.7491896E-14 -0.1150756E+01
  0.3157500E+02  0.3099851E-01 -0.1570796E+01  0.1348509E-08 -0.3067506E+01  0.8323713E-42  0.3141593E+01  0.3050783E-09 -0.2350289E+01  0.8782916E-02  0.1570797E+01  0.5307198E-15  0.2782832E+01
  0.3329583E+02  0.1478659E-01 -0.1570796E+01  0.5326781E-09  0.2963849E+01  0.0000000E+00  0.0000000E+00  0.1287349E-09 -0.1574925E+00  0.4189534E-02  0.1570797E+01  0.8966679E-16  0.2859149E+01
  0.3501667E+02  0.2513354E-04 -0.1570879E+01  0.3679019E-10 -0.2444450E+01  0.0000000E+00  0.0000000E+00  0.3484045E-10 -0.3089702E+01  0.7121372E-05  0.1570762E+01  0.1753960E-15 -0.1893315E+01
  0.3673750E+02  0.3647769E-02  0.1570796E+01  0.2068984E-10  0.2746779E+01  0.0000000E+00  0.0000000E+00  0.1630493E-10 -0.2739748E+01  0.1033534E-02 -0.1570796E+01  0.4366124E-15 -0.1538986E+01
  0.3845834E+02  0.1755727E-02 -0.1570796E+01  0.4688368E-10 -0.3097930E+01  0.0000000E+00  0.0000000E+00  0.7122472E-12  0.2642275E+01  0.4974561E-03  0.1570796E+01  0.1147021E-15 -0.1510266E+01
  0.4017917E+02  0.4676107E-03  0.1570797E+01  0.1762973E-10  0.3077062E+01  0.0000000E+00  0.0000000E+00  0.8233711E-12 -0.1941688E+01  0.1324897E-03 -0.1570796E+01  0.1822620E-16 -0.1535097E+01
  0.4190000E+02  0.7289119E-04 -0.1570796E+01  0.8359076E-12  0.9544994E+00  0.0000000E+00  0.0000000E+00  0.4633398E-12 -0.2948708E+01  0.2065251E-04  0.1570797E+01  0.2935366E-17  0.1496857E+01
